/*--------------------------------*- C++ -*----------------------------------*\
| =========                 |                                                 |
| \\      /  F ield         | OpenFOAM: The Open Source CFD Toolbox           |
|  \\    /   O peration     | Version:  2112                                  |
|   \\  /    A nd           | Website:  www.openfoam.com                      |
|    \\/     M anipulation  |                                                 |
\*---------------------------------------------------------------------------*/
FoamFile
{
    version     2.0;
    format      ascii;
    arch        "LSB;label=32;scalar=64";
    class       volScalarField;
    location    "0";
    object      error;
}
// * * * * * * * * * * * * * * * * * * * * * * * * * * * * * * * * * * * * * //

dimensions      [0 0 0 0 0 0 0];

internalField   nonuniform List<scalar> 
2000
(
0.050228
0.0503006
0.0504154
0.0505788
0.050801
0.0510923
0.0514571
0.0518889
0.0523656
0.0528607
0.051141
0.051228
0.0513644
0.0515477
0.0517769
0.0520488
0.052357
0.0526958
0.0530728
0.0535454
0.0520067
0.052106
0.0522583
0.0524547
0.0526854
0.0529365
0.0531879
0.053408
0.0535462
0.0535128
0.0528206
0.0529303
0.0530977
0.0533096
0.0535527
0.0538099
0.0540588
0.0542675
0.0543914
0.0543664
0.0535761
0.0536961
0.0538804
0.0541151
0.0543872
0.054683
0.0549879
0.0552862
0.0555641
0.0558156
0.0542641
0.0543946
0.0545977
0.0548607
0.055173
0.0555263
0.0559146
0.0563356
0.0567938
0.0573039
0.0548748
0.0550153
0.0552371
0.0555288
0.0558826
0.0562942
0.0567631
0.0572931
0.0578935
0.0585797
0.0553997
0.055548
0.0557849
0.0560999
0.0564873
0.0569451
0.0574748
0.0580814
0.058773
0.0595602
0.0558312
0.0559837
0.0562292
0.0565577
0.0569646
0.0574493
0.0580133
0.058661
0.0593979
0.060231
0.0561646
0.0563163
0.0565619
0.0568914
0.0573011
0.0577904
0.0583609
0.0590162
0.0597589
0.0605983
0.0418969
0.0422355
0.0420118
0.0415234
0.0408839
0.0401457
0.0393432
0.038505
0.037662
0.0368497
0.0431484
0.0427355
0.0423281
0.0417856
0.0411234
0.0403663
0.0395364
0.0386526
0.0377339
0.0367962
0.0436649
0.0433008
0.0428415
0.0422721
0.0415972
0.0408252
0.0399649
0.0390247
0.0380177
0.0369634
0.0442054
0.0439206
0.0434963
0.042954
0.0423045
0.0415492
0.0406842
0.0397022
0.0385989
0.037378
0.0448527
0.0446371
0.0442838
0.0438162
0.043246
0.0425693
0.0417686
0.0408154
0.0396742
0.0383086
0.0456108
0.0454585
0.0451962
0.044843
0.0444113
0.0438976
0.0432804
0.0425141
0.0415264
0.0402129
0.0464638
0.0463708
0.0462058
0.0459927
0.0457488
0.0454841
0.0451971
0.0448626
0.0444148
0.0437112
0.0473839
0.0473471
0.0472766
0.0472034
0.0471578
0.0471753
0.0473037
0.047607
0.0481677
0.0490613
0.0483365
0.0483482
0.0483614
0.0484028
0.0485118
0.0487375
0.049161
0.0499317
0.0513581
0.0541264
0.0492894
0.049339
0.0494146
0.0495342
0.0497235
0.0500121
0.0504255
0.0509698
0.0515771
0.0519735
0.0352678
0.0348091
0.0341368
0.0332546
0.0321799
0.0309394
0.0295637
0.028082
0.0265171
0.0248827
0.0231827
0.0214118
0.0195581
0.0176048
0.0155331
0.0133236
0.0109598
0.00843473
0.00577879
0.00324333
0.0353097
0.0348557
0.0342008
0.0333368
0.0322895
0.0310908
0.0297745
0.0283697
0.0268964
0.0253634
0.0237704
0.0221102
0.0203727
0.0185482
0.0166316
0.0146277
0.0125626
0.010509
0.00864711
0.00738797
0.0359174
0.0354949
0.0347984
0.0338858
0.0328184
0.0316451
0.0304041
0.029118
0.0277938
0.0264268
0.0250059
0.02352
0.0219622
0.0203338
0.0186481
0.0169371
0.0152615
0.0137302
0.0125239
0.0119087
0.03714
0.0366547
0.0358064
0.0347793
0.0336721
0.0325504
0.031443
0.0303459
0.0292357
0.0280833
0.0268654
0.0255703
0.0241997
0.0227706
0.0213153
0.0198854
0.0185572
0.0174398
0.0166774
0.0164432
0.0393107
0.0385853
0.0373729
0.0361516
0.0350276
0.0340395
0.0331556
0.0323073
0.0314251
0.0304602
0.0293909
0.0282209
0.0269727
0.0256838
0.024404
0.0231965
0.0221398
0.0213306
0.0208805
0.0209102
0.0427208
0.0415248
0.0397253
0.0383585
0.0373888
0.0366907
0.0360878
0.0354311
0.0346356
0.0336779
0.0325776
0.0313769
0.0301276
0.0288855
0.0277087
0.02666
0.025809
0.0252345
0.0250206
0.0252559
0.0474846
0.0456693
0.0434332
0.0423575
0.0418503
0.0414569
0.0408858
0.0400305
0.0389116
0.037607
0.0362059
0.0347878
0.0334169
0.0321466
0.0310236
0.0300951
0.0294119
0.0290316
0.0290159
0.0294322
0.053238
0.0514581
0.0500748
0.049944
0.0496649
0.0488122
0.0473907
0.0455906
0.0436217
0.0416467
0.0397713
0.0380574
0.0365393
0.0352382
0.0341718
0.0333618
0.0328374
0.0326372
0.0328064
0.0333992
0.0581373
0.0601048
0.0616378
0.061418
0.0595011
0.0566727
0.0535228
0.0504162
0.0475445
0.0449897
0.0427738
0.0408902
0.0393226
0.038056
0.0370828
0.0364057
0.0360402
0.0360136
0.036362
0.0371317
0.0529464
0.0584921
0.060471
0.0590957
0.0570069
0.0547665
0.0525034
0.0502994
0.0482145
0.0462905
0.0445547
0.0430259
0.0417189
0.0406486
0.0398333
0.0392964
0.0390684
0.0391856
0.0396878
0.0406188
0.0509086
0.0501609
0.0473479
0.0447338
0.0435005
0.0432287
0.0433383
0.0434823
0.0435101
0.0433833
0.0431197
0.0427634
0.0423704
0.0420017
0.0417209
0.0415912
0.0416761
0.0420365
0.0427293
0.0438073
0.0552929
0.0522266
0.0496323
0.0475616
0.0462637
0.0456028
0.0453083
0.0451584
0.0450224
0.0448431
0.0446121
0.0443496
0.0440921
0.0438851
0.0437788
0.0438259
0.0440794
0.0445919
0.0454134
0.0465927
0.057275
0.0540223
0.0516172
0.0497974
0.0485265
0.0477107
0.0472053
0.0468744
0.0466227
0.0463979
0.0461829
0.0459849
0.0458274
0.0457439
0.045774
0.0459606
0.0463486
0.0469829
0.0479078
0.0491668
0.0575843
0.0551328
0.0531637
0.0516091
0.0504362
0.0495908
0.0489944
0.048567
0.0482455
0.0479907
0.0477862
0.0476341
0.0475501
0.0475594
0.0476933
0.0479874
0.0484792
0.0492075
0.0502112
0.0515291
0.0574812
0.0558752
0.0543971
0.0531299
0.0520986
0.051292
0.050676
0.0502085
0.0498524
0.0495824
0.0493872
0.0492682
0.0492373
0.0493143
0.0495248
0.0498983
0.0504666
0.0512633
0.0523227
0.0536792
0.0575766
0.0565641
0.0554914
0.0544841
0.0536017
0.0528637
0.0522654
0.0517909
0.0514225
0.0511475
0.0509604
0.0508644
0.0508698
0.0509936
0.051257
0.0516852
0.0523057
0.0531475
0.054241
0.0556169
0.0580193
0.0573632
0.0565744
0.0557693
0.0550161
0.0543495
0.0537826
0.0533161
0.0529464
0.0526703
0.0524881
0.0524053
0.0524324
0.0525844
0.05288
0.0533411
0.0539916
0.0548572
0.0559647
0.0573418
0.0588073
0.0583346
0.0577188
0.057051
0.0563934
0.0557848
0.0552469
0.0547904
0.0544207
0.0541417
0.0539583
0.0538784
0.053913
0.0540762
0.0543851
0.0548591
0.0555197
0.0563895
0.0574927
0.058854
0.0598908
0.0594868
0.0589571
0.058367
0.0577675
0.0571951
0.0566743
0.0562208
0.0558454
0.0555566
0.0553631
0.0552743
0.0553022
0.0554604
0.0557649
0.0562336
0.0568856
0.0577417
0.0588234
0.0601533
0.0612124
0.0608047
0.0602978
0.0597359
0.0591587
0.0585976
0.0580765
0.0576132
0.0572213
0.0569123
0.0566969
0.0565863
0.0565928
0.0567302
0.0570135
0.0574594
0.0580856
0.0589111
0.0599556
0.0612397
0.0627212
0.0622658
0.061737
0.0611642
0.0605772
0.0600023
0.0594613
0.0589722
0.0585498
0.0582071
0.0579562
0.0578094
0.0577794
0.0578798
0.0581255
0.058532
0.059116
0.0598952
0.0608878
0.0621127
0.0643785
0.0638483
0.0632663
0.0626517
0.0620274
0.0614148
0.0608335
0.0603007
0.0598315
0.0594397
0.0591381
0.0589396
0.0588573
0.0589048
0.0590965
0.0594475
0.0599737
0.0606916
0.0616184
0.062772
0.0661571
0.0655351
0.0648769
0.0641961
0.0635103
0.0628377
0.0621957
0.0616005
0.061067
0.0606092
0.0602405
0.0599739
0.0598229
0.0598011
0.0599227
0.0602024
0.0606554
0.0612978
0.0621458
0.0632165
0.068041
0.0673147
0.0665624
0.0657945
0.0650259
0.0642722
0.0635493
0.0628725
0.0622563
0.0617148
0.0612616
0.0609099
0.0606733
0.0605655
0.0606006
0.0607932
0.0611582
0.0617111
0.0624679
0.0634449
0.0700231
0.0691813
0.0683191
0.0674457
0.0665743
0.0657194
0.0648956
0.0641176
0.0633997
0.062756
0.0622
0.0617453
0.0614057
0.0611948
0.061127
0.0612167
0.0614789
0.0619288
0.0625823
0.0634552
0.0721033
0.0711344
0.070147
0.0691501
0.0681567
0.0671805
0.0662357
0.0653367
0.0644975
0.0637323
0.0630547
0.0624787
0.062018
0.0616867
0.0614991
0.06147
0.0616145
0.0619479
0.0624861
0.0632451
0.0742873
0.073178
0.0720491
0.0709106
0.0697757
0.0686581
0.0675719
0.0665314
0.0655508
0.0646441
0.0638255
0.0631089
0.0625086
0.0620388
0.0617144
0.0615503
0.061562
0.0617652
0.0621763
0.0628115
0.0765853
0.07532
0.074032
0.0727326
0.0714359
0.070156
0.0689073
0.0677042
0.0665611
0.0654924
0.0645125
0.0636356
0.0628764
0.0622497
0.0617707
0.0614548
0.0613183
0.0613775
0.0616493
0.0621508
0.079011
0.0775719
0.0761048
0.0746237
0.0731437
0.0716796
0.0702463
0.0688587
0.0675314
0.0662793
0.065117
0.0640594
0.0631214
0.0623185
0.0616665
0.0611817
0.0608809
0.0607816
0.0609016
0.0612591
0.0815881
0.0799488
0.0782795
0.0765937
0.0749075
0.0732362
0.0715953
0.0700001
0.068466
0.0670081
0.0656417
0.0643819
0.0632445
0.0622455
0.0614013
0.0607294
0.0602476
0.0599745
0.0599295
0.060132
0.0607738
0.0606404
0.0604029
0.0600208
0.0594029
0.0584034
0.056828
0.0544968
0.0515304
0.0492051
0.0619838
0.0618836
0.0617597
0.0617124
0.0618533
0.0622506
0.062744
0.0624692
0.060161
0.0568994
0.0631878
0.0631692
0.0631716
0.063259
0.0634431
0.063565
0.0631171
0.0613806
0.0592506
0.0582235
0.0643528
0.0643825
0.064411
0.0643999
0.0641998
0.0634896
0.0618753
0.0595407
0.0580062
0.0577536
0.0654485
0.0654645
0.0653927
0.0651087
0.0643943
0.063008
0.0609605
0.0589153
0.057728
0.0572439
0.0664788
0.0664362
0.0661995
0.0656197
0.0645244
0.0628645
0.0609267
0.0592914
0.0581502
0.0572132
0.0674734
0.0673587
0.0669594
0.06616
0.0648899
0.0632592
0.0616078
0.0602443
0.0590141
0.0576904
0.0684789
0.0683027
0.0677847
0.0668713
0.0655915
0.0641284
0.0627445
0.0615178
0.0601786
0.058599
0.0695415
0.0693282
0.0687484
0.0678127
0.0666163
0.0653452
0.0641531
0.0629819
0.0615614
0.0598434
0.0707029
0.0704785
0.0698879
0.0689906
0.0679119
0.0668046
0.0657319
0.0645767
0.0631111
0.0613388
0.0719929
0.0717795
0.0712149
0.0703871
0.0694246
0.068438
0.0674313
0.0662748
0.0647931
0.0630193
0.0734333
0.0732454
0.0727277
0.0719786
0.0711144
0.0702079
0.0692314
0.0680663
0.0665863
0.0648388
0.0750365
0.0748818
0.0744194
0.0737452
0.0729565
0.0720975
0.0711282
0.0699506
0.0684798
0.0667685
0.0768112
0.0766911
0.0762835
0.0756735
0.0749384
0.0741029
0.073126
0.0719328
0.0704707
0.0687936
0.0787623
0.0786747
0.0783161
0.0777574
0.0770574
0.0762285
0.0752345
0.0740217
0.0725628
0.0709105
0.0808952
0.0808353
0.0805173
0.0799968
0.0793172
0.0784834
0.077466
0.0762294
0.074765
0.0731233
0.0832153
0.0831774
0.0828908
0.0823969
0.0817267
0.0808804
0.0798355
0.0785705
0.07709
0.0754425
0.0857306
0.0857086
0.0854443
0.084967
0.084298
0.0834347
0.0823597
0.0810615
0.0795537
0.0778828
0.0884513
0.0884396
0.0881887
0.0877194
0.0870464
0.086164
0.0850577
0.0837218
0.0821747
0.0804619
0.0913907
0.0913831
0.0911367
0.0906707
0.0899948
0.0890993
0.0879679
0.0865941
0.0849955
0.083216
0.0569513
0.0566724
0.0563611
0.0560734
0.0558272
0.0556288
0.0554747
0.055359
0.0552765
0.0552216
0.0566114
0.0564563
0.0563314
0.0562012
0.0560619
0.0559241
0.0557965
0.0556869
0.0555997
0.0555387
0.0558027
0.0561648
0.0563101
0.0563317
0.056279
0.056187
0.0560801
0.0559764
0.0558879
0.0558237
0.0559854
0.0563677
0.0565429
0.056587
0.056547
0.0564591
0.0563501
0.0562403
0.0561448
0.0560733
0.0569769
0.0570476
0.0570466
0.0569861
0.0568806
0.0567486
0.056608
0.0564745
0.0563621
0.0562812
0.0581469
0.0578994
0.0576742
0.0574577
0.057244
0.0570364
0.0568426
0.056672
0.0565349
0.056441
0.0591844
0.0586973
0.0582777
0.0579095
0.057581
0.0572884
0.0570327
0.0568185
0.0566527
0.056544
0.0599714
0.0593221
0.0587578
0.0582664
0.0578382
0.0574676
0.0571532
0.0568965
0.0567024
0.0565782
0.0604727
0.0597198
0.0590571
0.0584778
0.0579748
0.0575432
0.0571811
0.0568889
0.0566701
0.0565325
0.0606789
0.0598655
0.0591469
0.0585142
0.057964
0.0574924
0.057098
0.0567805
0.0565446
0.0563976
0.0503448
0.0504129
0.0505751
0.0508118
0.0510779
0.0513443
0.0515789
0.0517348
0.051697
0.0510851
0.0499696
0.050202
0.0504788
0.050793
0.0511126
0.0514164
0.0516824
0.0518813
0.0519764
0.0521152
0.0494999
0.0499334
0.0503737
0.0508068
0.0512064
0.051562
0.0518628
0.0520982
0.0522638
0.0524376
0.0489932
0.0497223
0.0503711
0.0509379
0.0514166
0.0518135
0.052134
0.0523804
0.0525572
0.0526966
0.0487501
0.0498062
0.0506428
0.051299
0.0518069
0.0522001
0.0525018
0.0527264
0.0528826
0.0529873
0.0493078
0.0505406
0.0513965
0.0519964
0.052424
0.0527365
0.0529683
0.0531372
0.053252
0.0533223
0.0514383
0.0522949
0.0527734
0.0530623
0.0532556
0.0533995
0.0535124
0.0535997
0.0536598
0.0536942
0.0556679
0.0550416
0.0545992
0.0543286
0.0541807
0.0541112
0.0540872
0.0540851
0.0540877
0.054089
0.0600571
0.0574295
0.0560931
0.0553791
0.0549819
0.0547573
0.05463
0.0545558
0.0545123
0.0544845
0.0573903
0.0569022
0.0563264
0.0558497
0.055499
0.0552559
0.0550915
0.0549825
0.0549121
0.054868
0.0634249
0.0594424
0.0582088
0.0570916
0.0560811
0.055172
0.0543626
0.0536537
0.0530472
0.0525444
0.0521431
0.0518359
0.0516074
0.0514335
0.0512813
0.0511123
0.0508874
0.0505728
0.0501491
0.0495986
0.0643715
0.0592875
0.0580889
0.056999
0.0560069
0.0551059
0.0542925
0.0535666
0.0529299
0.0523857
0.0519363
0.051581
0.0513123
0.0511133
0.0509553
0.0507993
0.0506008
0.0503157
0.0499089
0.0493756
0.0659461
0.0589877
0.0578649
0.0568405
0.0559022
0.0550405
0.054248
0.0535212
0.0528591
0.0522662
0.0517502
0.0513222
0.0509918
0.050762
0.0506211
0.0505373
0.0504595
0.0503196
0.0500362
0.0495004
0.0676201
0.0585233
0.0575105
0.056589
0.055747
0.0549721
0.0542517
0.0535743
0.0529305
0.0523175
0.0517408
0.0512186
0.05078
0.0504607
0.0502891
0.0502682
0.0503583
0.0504711
0.0504817
0.0500643
0.0688385
0.0578779
0.0569924
0.0562006
0.0554952
0.0548654
0.054295
0.0537636
0.0532478
0.0527266
0.0521861
0.05163
0.0510871
0.050619
0.0503122
0.0502524
0.0504794
0.0509405
0.0515159
0.0514093
0.0691448
0.0570408
0.0562704
0.0556047
0.0550501
0.0546058
0.0542596
0.0539891
0.0537608
0.0535333
0.0532607
0.0529034
0.0524434
0.0519109
0.0514085
0.0511182
0.0512579
0.0519796
0.0533549
0.0537891
0.0682434
0.0560259
0.0553208
0.0547324
0.0542956
0.0540287
0.0539328
0.053995
0.0541872
0.0544668
0.0547713
0.0550199
0.0551183
0.0549847
0.0546006
0.0540911
0.0537961
0.0542386
0.0561619
0.057248
0.0660065
0.0548954
0.0541586
0.053552
0.0531587
0.0530139
0.0531274
0.0534992
0.0541219
0.0549792
0.0560361
0.0572286
0.0584451
0.059517
0.0602276
0.0603829
0.0599833
0.0594706
0.0604184
0.0614398
0.0624554
0.0538044
0.0528181
0.0520655
0.0516557
0.0515894
0.0518543
0.0524475
0.0533764
0.0546565
0.0563028
0.0583212
0.0606873
0.0633179
0.0660199
0.0684271
0.0699457
0.0697286
0.067619
0.0648138
0.0577789
0.0531836
0.0511742
0.050193
0.0498031
0.0498235
0.0501695
0.0507983
0.0516871
0.0528233
0.0541969
0.0557958
0.0575993
0.0595734
0.061663
0.0637852
0.0657867
0.0669827
0.0644308
0.0581097
0.0514933
0.0498777
0.0481728
0.0472775
0.0468424
0.0466928
0.0467224
0.0468549
0.0470297
0.047196
0.0473129
0.0473557
0.0473292
0.0472966
0.0474281
0.0480645
0.0497139
0.0526125
0.0553317
0.0558189
0.0461302
0.0457162
0.045147
0.0448101
0.0447272
0.0448453
0.0451048
0.0454522
0.0458424
0.0462396
0.0466199
0.0469771
0.0473335
0.0477567
0.0483779
0.0493985
0.0510362
0.0533477
0.056037
0.0591825
0.0421474
0.0421196
0.042111
0.0422349
0.0425163
0.0429361
0.0434598
0.0440513
0.0446788
0.0453184
0.0459569
0.0465973
0.0472649
0.048015
0.048938
0.0501519
0.05177
0.0538497
0.0564105
0.0597416
0.0385767
0.0387998
0.0391632
0.0396629
0.0402876
0.0410146
0.0418163
0.0426657
0.0435396
0.0444217
0.0453053
0.0461962
0.0471163
0.048106
0.0492236
0.0505372
0.052107
0.0539664
0.0561328
0.0586603
0.0351379
0.0356191
0.0363041
0.0371414
0.0380917
0.0391225
0.0402052
0.041316
0.0424366
0.0435553
0.0446684
0.0457816
0.0469115
0.0480851
0.0493372
0.0507036
0.0522088
0.0538521
0.0555959
0.0573428
0.0317504
0.0325243
0.0335312
0.0346968
0.0359656
0.0372963
0.0386579
0.0400278
0.0413903
0.0427364
0.0440639
0.0453772
0.0466875
0.0480116
0.0493681
0.0507714
0.0522228
0.0536974
0.0551305
0.05639
0.0284057
0.0295127
0.0308603
0.0323601
0.0339464
0.0355732
0.0372086
0.0388311
0.0404272
0.0419898
0.0435174
0.0450133
0.0464848
0.0479409
0.0493897
0.0508331
0.0522594
0.053635
0.0548914
0.0559141
0.02513
0.0266138
0.0283277
0.0301717
0.032076
0.0339937
0.0358945
0.0377594
0.0395776
0.0413442
0.0430584
0.044723
0.0463423
0.0479208
0.0494605
0.0509565
0.0523925
0.0537344
0.0549254
0.0558794
0.0219805
0.0238881
0.0259928
0.0281883
0.0304061
0.0326039
0.0347563
0.0368489
0.0388744
0.0408304
0.0427175
0.0445381
0.0462954
0.0479912
0.0496244
0.0511878
0.052665
0.0540276
0.055232
0.056221
0.0190535
0.0214291
0.0239385
0.0264801
0.0289961
0.0314542
0.0338373
0.0361371
0.0383509
0.0404791
0.042524
0.0444884
0.0463748
0.0481843
0.0499145
0.0515582
0.0531016
0.0545227
0.0557918
0.0568729
0.0165056
0.019371
0.0222717
0.0251309
0.0279117
0.0305973
0.0331807
0.0356607
0.0380392
0.0403194
0.0425052
0.0446002
0.0466068
0.0485259
0.0503551
0.0520884
0.0537152
0.0552205
0.0565844
0.0577868
0.0145747
0.0178848
0.021113
0.0242273
0.0272177
0.0300832
0.0328267
0.0354532
0.0379682
0.0403772
0.0426852
0.0448963
0.0470132
0.0490366
0.0509647
0.0527931
0.0545141
0.0561175
0.057592
0.0589268
0.0135611
0.0171503
0.0205764
0.0238463
0.0269689
0.0299535
0.0328085
0.0355423
0.038162
0.0406742
0.0430841
0.0453958
0.0476118
0.0497329
0.0517578
0.053683
0.0555035
0.057213
0.0588045
0.0602738
0.0136958
0.0172878
0.0207336
0.0240354
0.0272
0.0302351
0.0331485
0.0359474
0.0386382
0.0412267
0.0437173
0.0461134
0.0484169
0.0506281
0.0527458
0.0547674
0.0566892
0.0585069
0.0602169
0.0618175
0.0149644
0.0182961
0.0215886
0.0248011
0.0279186
0.0309367
0.0338556
0.0366779
0.0394067
0.0420451
0.0445956
0.04706
0.0494391
0.0517323
0.0539381
0.0560539
0.0580766
0.0600029
0.0618303
0.0635579
0.0171241
0.0200552
0.0230771
0.0261075
0.0291045
0.0320472
0.0349251
0.0377332
0.0404695
0.0431334
0.0457245
0.0482423
0.0506859
0.0530535
0.0553425
0.0575499
0.0596722
0.0617061
0.0636492
0.0654997
0.0198874
0.0223937
0.0250948
0.0278889
0.0307158
0.0335398
0.0363397
0.0391028
0.0418211
0.0444897
0.0471047
0.0496631
0.0521616
0.0545969
0.056965
0.0592617
0.0614827
0.0636241
0.0656819
0.0676532
0.0230324
0.0251493
0.0275278
0.0300665
0.0326975
0.0353761
0.0380729
0.0407685
0.0434495
0.0461067
0.0487327
0.0513216
0.0538679
0.056366
0.0588105
0.0611957
0.0635158
0.0657652
0.0679387
0.0700308
0.0264131
0.0281938
0.030274
0.032562
0.0349907
0.0375121
0.0400921
0.0427065
0.0453378
0.0479728
0.0506011
0.0532141
0.0558036
0.0583623
0.0608827
0.0633573
0.0657788
0.0681396
0.0704321
0.0726476
0.029935
0.0314334
0.0332494
0.0353051
0.0375388
0.0399031
0.0423626
0.0448904
0.0474662
0.0500739
0.0527005
0.0553349
0.0579669
0.0605869
0.0631855
0.0657533
0.0682809
0.0707589
0.0731783
0.0755301
0.0526147
0.0545239
0.0570134
0.0586238
0.0596325
0.0602276
0.0605625
0.0607437
0.0608285
0.0608336
0.0600198
0.0627365
0.0645589
0.0641427
0.063112
0.0623647
0.0620106
0.0619303
0.0619717
0.0620106
0.0603229
0.0607277
0.0626948
0.0640575
0.0641152
0.0637148
0.0633687
0.0632038
0.0631723
0.063186
0.0589184
0.0585024
0.0599584
0.062227
0.0636711
0.064223
0.0643314
0.0643178
0.0643098
0.0643255
0.0575423
0.0574294
0.0585207
0.0606735
0.0627601
0.0641368
0.0648532
0.0651765
0.0653206
0.0653978
0.0566603
0.0571601
0.0582241
0.0600447
0.0621717
0.0639635
0.065165
0.0658572
0.066222
0.0664056
0.0563053
0.0573875
0.0586167
0.0602129
0.0621484
0.064025
0.0655
0.0664875
0.0670733
0.0673775
0.0564173
0.0579547
0.0594037
0.0609144
0.0626465
0.0644405
0.0660101
0.0671833
0.0679457
0.0683603
0.0569237
0.0587836
0.0604367
0.0619521
0.0635436
0.0652085
0.0667633
0.0680221
0.068901
0.0694004
0.057752
0.0598287
0.0616456
0.0632115
0.0647303
0.0662804
0.0677718
0.0690461
0.0699851
0.0705404
0.0588474
0.0610629
0.0630023
0.0646355
0.066133
0.0676027
0.0690208
0.0702697
0.0712257
0.0718107
0.0601675
0.0624698
0.0644977
0.0662007
0.0677096
0.0691335
0.0704876
0.0716935
0.0726386
0.0732336
0.0616877
0.0640424
0.0661338
0.0679019
0.0694407
0.0708461
0.0721519
0.0733111
0.0742303
0.0748218
0.0633938
0.0657808
0.067918
0.0697442
0.0713212
0.0727265
0.0739997
0.0751163
0.0760036
0.0765844
0.0652837
0.0676907
0.069862
0.0717381
0.073355
0.0747708
0.076024
0.0771047
0.0779598
0.0785262
0.0673616
0.0697827
0.0719798
0.0738977
0.0755515
0.0769826
0.0782241
0.0792759
0.0801015
0.0806526
0.0696389
0.0720706
0.0742878
0.0762389
0.0779242
0.0793703
0.0806048
0.0816333
0.0824328
0.0829689
0.07213
0.0745712
0.076804
0.07878
0.0804887
0.0819463
0.083175
0.0841843
0.0849613
0.0854832
0.0748533
0.0773032
0.0795481
0.0815404
0.0832632
0.0847258
0.0859473
0.0869395
0.0876972
0.0882053
0.0778485
0.0803137
0.0825668
0.0845618
0.0862812
0.087734
0.0889399
0.0899137
0.0906549
0.0911494
)
;

boundaryField
{
    down
    {
        type            symmetryPlane;
    }
    right
    {
        type            calculated;
        value           nonuniform List<scalar> 
30
(
0.00225457
0.00658961
0.0109428
0.0152705
0.0195444
0.0237271
0.0277751
0.0316493
0.0353235
0.0387852
0.0420113
0.0448997
0.0475966
0.0500957
0.0523916
0.054479
0.0563538
0.0580124
0.0594521
0.0606706
0.0616663
0.0624378
0.0629836
0.0633023
0.0633922
0.0632512
0.0628768
0.0622661
0.0614158
0.0603224
)
;
    }
    up
    {
        type            symmetryPlane;
    }
    left
    {
        type            calculated;
        value           uniform 0;
    }
    cylinder
    {
        type            symmetry;
    }
    defaultFaces
    {
        type            empty;
    }
}


// ************************************************************************* //
