/*--------------------------------*- C++ -*----------------------------------*\
| =========                 |                                                 |
| \\      /  F ield         | OpenFOAM: The Open Source CFD Toolbox           |
|  \\    /   O peration     | Version:  2112                                  |
|   \\  /    A nd           | Website:  www.openfoam.com                      |
|    \\/     M anipulation  |                                                 |
\*---------------------------------------------------------------------------*/
FoamFile
{
    version     2.0;
    format      ascii;
    arch        "LSB;label=32;scalar=64";
    class       volVectorField;
    location    "0";
    object      UA;
}
// * * * * * * * * * * * * * * * * * * * * * * * * * * * * * * * * * * * * * //

dimensions      [0 1 -1 0 0 0 0];

internalField   nonuniform List<vector> 
2000
(
(1.07106 -0.902868 0)
(1.05925 -0.752863 0)
(1.05016 -0.637346 0)
(1.04301 -0.546505 0)
(1.03729 -0.473782 0)
(1.03263 -0.414661 0)
(1.0288 -0.365952 0)
(1.02561 -0.325346 0)
(1.02291 -0.291141 0)
(1.02062 -0.262059 0)
(1.21142 -0.880636 0)
(1.1763 -0.734325 0)
(1.14925 -0.621653 0)
(1.12797 -0.533048 0)
(1.11094 -0.462116 0)
(1.0971 -0.404451 0)
(1.08569 -0.356941 0)
(1.07619 -0.317335 0)
(1.06818 -0.283972 0)
(1.06137 -0.255606 0)
(1.34658 -0.83672 0)
(1.289 -0.697705 0)
(1.24466 -0.590652 0)
(1.20979 -0.506466 0)
(1.18187 -0.439071 0)
(1.15917 -0.384282 0)
(1.14048 -0.339141 0)
(1.12489 -0.30151 0)
(1.11176 -0.269811 0)
(1.1006 -0.242859 0)
(1.47321 -0.772201 0)
(1.39459 -0.643906 0)
(1.33404 -0.545107 0)
(1.28643 -0.467413 0)
(1.24832 -0.405214 0)
(1.21733 -0.35465 0)
(1.1918 -0.31299 0)
(1.17052 -0.278261 0)
(1.15259 -0.249006 0)
(1.13735 -0.224133 0)
(1.58818 -0.688668 0)
(1.49046 -0.574251 0)
(1.4152 -0.48614 0)
(1.35602 -0.41685 0)
(1.30865 -0.36138 0)
(1.27013 -0.316286 0)
(1.2384 -0.279133 0)
(1.21195 -0.24816 0)
(1.18967 -0.22207 0)
(1.17072 -0.199887 0)
(1.68867 -0.588178 0)
(1.57425 -0.490457 0)
(1.48614 -0.415203 0)
(1.41685 -0.356024 0)
(1.36138 -0.308648 0)
(1.31629 -0.270134 0)
(1.27913 -0.238402 0)
(1.24816 -0.211949 0)
(1.22207 -0.189666 0)
(1.19989 -0.17072 0)
(1.7722 -0.473205 0)
(1.64391 -0.394586 0)
(1.54511 -0.334042 0)
(1.46741 -0.286431 0)
(1.40521 -0.248316 0)
(1.35465 -0.21733 0)
(1.31299 -0.191801 0)
(1.27826 -0.170519 0)
(1.24901 -0.152591 0)
(1.22413 -0.137349 0)
(1.83672 -0.34658 0)
(1.6977 -0.288999 0)
(1.59065 -0.244656 0)
(1.50647 -0.209785 0)
(1.43907 -0.181869 0)
(1.38428 -0.159175 0)
(1.33914 -0.140477 0)
(1.30151 -0.12489 0)
(1.26981 -0.111759 0)
(1.24286 -0.100596 0)
(1.88063 -0.211422 0)
(1.73432 -0.176296 0)
(1.62165 -0.149245 0)
(1.53305 -0.127973 0)
(1.46212 -0.110944 0)
(1.40445 -0.0971001 0)
(1.35694 -0.085694 0)
(1.31734 -0.0761854 0)
(1.28397 -0.0681757 0)
(1.25561 -0.0613656 0)
(1.90287 -0.0710571 0)
(1.75286 -0.0592515 0)
(1.63735 -0.0501602 0)
(1.5465 -0.0430108 0)
(1.47378 -0.0372874 0)
(1.41466 -0.0326346 0)
(1.36595 -0.0288011 0)
(1.32535 -0.0256053 0)
(1.29114 -0.0229133 0)
(1.26206 -0.0206245 0)
(0.0971338 -0.0710571 0)
(0.247138 -0.0592515 0)
(0.362654 -0.0501602 0)
(0.453496 -0.0430108 0)
(0.526219 -0.0372874 0)
(0.585339 -0.0326346 0)
(0.634048 -0.0288011 0)
(0.674654 -0.0256053 0)
(0.708859 -0.0229133 0)
(0.737941 -0.0206245 0)
(0.119365 -0.211422 0)
(0.265676 -0.176296 0)
(0.378348 -0.149245 0)
(0.466952 -0.127973 0)
(0.537885 -0.110944 0)
(0.595549 -0.0971001 0)
(0.643059 -0.085694 0)
(0.682665 -0.0761854 0)
(0.716028 -0.0681757 0)
(0.744394 -0.0613656 0)
(0.163281 -0.34658 0)
(0.302295 -0.288999 0)
(0.409348 -0.244656 0)
(0.493534 -0.209785 0)
(0.560929 -0.181869 0)
(0.615718 -0.159175 0)
(0.660859 -0.140477 0)
(0.69849 -0.12489 0)
(0.730189 -0.111759 0)
(0.757141 -0.100596 0)
(0.227799 -0.473205 0)
(0.356094 -0.394586 0)
(0.454893 -0.334042 0)
(0.532587 -0.286431 0)
(0.594786 -0.248316 0)
(0.64535 -0.21733 0)
(0.68701 -0.191801 0)
(0.721739 -0.170519 0)
(0.750994 -0.152591 0)
(0.775867 -0.137349 0)
(0.311332 -0.588178 0)
(0.425749 -0.490457 0)
(0.51386 -0.415203 0)
(0.58315 -0.356024 0)
(0.63862 -0.308648 0)
(0.683714 -0.270134 0)
(0.720867 -0.238402 0)
(0.75184 -0.211949 0)
(0.77793 -0.189666 0)
(0.800113 -0.17072 0)
(0.411821 -0.688668 0)
(0.509543 -0.574251 0)
(0.584797 -0.48614 0)
(0.643976 -0.41685 0)
(0.691352 -0.36138 0)
(0.729866 -0.316286 0)
(0.761598 -0.279133 0)
(0.788051 -0.24816 0)
(0.810334 -0.22207 0)
(0.82928 -0.199887 0)
(0.526794 -0.772201 0)
(0.605414 -0.643906 0)
(0.665958 -0.545107 0)
(0.713569 -0.467413 0)
(0.751684 -0.405214 0)
(0.78267 -0.35465 0)
(0.808199 -0.31299 0)
(0.829481 -0.278261 0)
(0.847409 -0.249006 0)
(0.862651 -0.224133 0)
(0.653419 -0.83672 0)
(0.711001 -0.697705 0)
(0.755344 -0.590652 0)
(0.790215 -0.506466 0)
(0.818131 -0.439071 0)
(0.840825 -0.384282 0)
(0.859523 -0.339141 0)
(0.87511 -0.30151 0)
(0.888241 -0.269811 0)
(0.899404 -0.242859 0)
(0.788578 -0.880636 0)
(0.823704 -0.734325 0)
(0.850754 -0.621653 0)
(0.872026 -0.533048 0)
(0.889056 -0.462116 0)
(0.9029 -0.404451 0)
(0.914306 -0.356941 0)
(0.923815 -0.317335 0)
(0.931824 -0.283972 0)
(0.938634 -0.255606 0)
(0.928943 -0.902868 0)
(0.940748 -0.752863 0)
(0.94984 -0.637346 0)
(0.956989 -0.546505 0)
(0.962713 -0.473782 0)
(0.967365 -0.414661 0)
(0.971199 -0.365952 0)
(0.974395 -0.325346 0)
(0.977087 -0.291141 0)
(0.979376 -0.262059 0)
(0.762749 -0.0181777 0)
(0.784272 -0.0156774 0)
(0.802997 -0.0136088 0)
(0.819389 -0.0118831 0)
(0.83382 -0.0104326 0)
(0.84659 -0.00920484 0)
(0.857943 -0.00815897 0)
(0.868083 -0.00726276 0)
(0.877176 -0.00649056 0)
(0.88536 -0.0058218 0)
(0.892754 -0.00523987 0)
(0.899455 -0.00473124 0)
(0.905547 -0.00428483 0)
(0.911103 -0.00389148 0)
(0.916183 -0.00354362 0)
(0.920839 -0.00323493 0)
(0.925119 -0.00296009 0)
(0.92906 -0.00271464 0)
(0.932699 -0.00249479 0)
(0.936065 -0.00229734 0)
(0.768276 -0.0541093 0)
(0.788783 -0.046702 0)
(0.806721 -0.0405636 0)
(0.822495 -0.0354361 0)
(0.836436 -0.0311216 0)
(0.848813 -0.0274665 0)
(0.859851 -0.0243507 0)
(0.869733 -0.0216792 0)
(0.878614 -0.0193762 0)
(0.886624 -0.017381 0)
(0.893871 -0.0156444 0)
(0.900451 -0.0141261 0)
(0.90644 -0.0127933 0)
(0.911908 -0.0116188 0)
(0.916913 -0.01058 0)
(0.921505 -0.00965804 0)
(0.925729 -0.0088372 0)
(0.929622 -0.00810411 0)
(0.933219 -0.00744749 0)
(0.936548 -0.00685776 0)
(0.779198 -0.0887801 0)
(0.797706 -0.0767443 0)
(0.814089 -0.0667372 0)
(0.828641 -0.0583556 0)
(0.841613 -0.0512873 0)
(0.853214 -0.0452887 0)
(0.863625 -0.0401677 0)
(0.872997 -0.0357718 0)
(0.881459 -0.0319787 0)
(0.889122 -0.0286901 0)
(0.896082 -0.0258258 0)
(0.902419 -0.0233205 0)
(0.908204 -0.0211204 0)
(0.913499 -0.0191811 0)
(0.918356 -0.0174655 0)
(0.922821 -0.0159427 0)
(0.926935 -0.0145867 0)
(0.930733 -0.0133756 0)
(0.934246 -0.0122909 0)
(0.937502 -0.0113167 0)
(0.795258 -0.121384 0)
(0.810842 -0.105177 0)
(0.824944 -0.0916318 0)
(0.8377 -0.0802387 0)
(0.849244 -0.070598 0)
(0.859701 -0.0623935 0)
(0.869186 -0.0553736 0)
(0.877804 -0.0493367 0)
(0.885648 -0.04412 0)
(0.8928 -0.0395917 0)
(0.899334 -0.0356441 0)
(0.905314 -0.0321887 0)
(0.910799 -0.0291525 0)
(0.915838 -0.026475 0)
(0.920477 -0.0241056 0)
(0.924755 -0.022002 0)
(0.928707 -0.0201287 0)
(0.932365 -0.0184554 0)
(0.935755 -0.0169567 0)
(0.938903 -0.0156106 0)
(0.816078 -0.151166 0)
(0.827904 -0.131413 0)
(0.83906 -0.114783 0)
(0.849486 -0.100711 0)
(0.859174 -0.0887462 0)
(0.86814 -0.0785244 0)
(0.87642 -0.0697509 0)
(0.884055 -0.0621867 0)
(0.891092 -0.055637 0)
(0.897577 -0.0499424 0)
(0.903556 -0.0449715 0)
(0.909072 -0.040616 0)
(0.914164 -0.036786 0)
(0.918872 -0.0334064 0)
(0.923227 -0.0304144 0)
(0.927261 -0.0277574 0)
(0.931004 -0.0253906 0)
(0.934479 -0.0232765 0)
(0.93771 -0.0213827 0)
(0.940719 -0.0196821 0)
(0.841167 -0.17744 0)
(0.848521 -0.15492 0)
(0.856144 -0.135769 0)
(0.863763 -0.119435 0)
(0.871206 -0.105457 0)
(0.878366 -0.0934533 0)
(0.885181 -0.0831072 0)
(0.891622 -0.0741573 0)
(0.897678 -0.0663869 0)
(0.903353 -0.0596165 0)
(0.908657 -0.0536966 0)
(0.913609 -0.0485028 0)
(0.918226 -0.0439309 0)
(0.922531 -0.0398936 0)
(0.926543 -0.0363174 0)
(0.930283 -0.0331403 0)
(0.933772 -0.0303096 0)
(0.937027 -0.0277807 0)
(0.940067 -0.0255154 0)
(0.942907 -0.0234812 0)
(0.869942 -0.199605 0)
(0.872252 -0.175229 0)
(0.875852 -0.154225 0)
(0.880253 -0.136119 0)
(0.885109 -0.120495 0)
(0.89018 -0.106986 0)
(0.895299 -0.0952801 0)
(0.900355 -0.0851102 0)
(0.905274 -0.0762505 0)
(0.910009 -0.0685098 0)
(0.914532 -0.0617272 0)
(0.91883 -0.0557665 0)
(0.922898 -0.050513 0)
(0.926737 -0.0458693 0)
(0.930353 -0.0417532 0)
(0.933754 -0.0380946 0)
(0.93695 -0.034834 0)
(0.939952 -0.0319206 0)
(0.942771 -0.0293108 0)
(0.945418 -0.0269672 0)
(0.901731 -0.217156 0)
(0.898596 -0.191949 0)
(0.897797 -0.169842 0)
(0.898645 -0.150522 0)
(0.900627 -0.133666 0)
(0.903367 -0.118966 0)
(0.906588 -0.10614 0)
(0.910092 -0.0949366 0)
(0.913736 -0.0851344 0)
(0.917417 -0.0765413 0)
(0.921065 -0.0689919 0)
(0.924632 -0.0623438 0)
(0.928085 -0.0564753 0)
(0.931404 -0.051282 0)
(0.934578 -0.0466748 0)
(0.937601 -0.0425775 0)
(0.940472 -0.0389245 0)
(0.943193 -0.0356599 0)
(0.945767 -0.0327354 0)
(0.9482 -0.0301094 0)
(0.935802 -0.229701 0)
(0.927008 -0.204766 0)
(0.921559 -0.182378 0)
(0.918605 -0.162453 0)
(0.917486 -0.144822 0)
(0.917696 -0.129275 0)
(0.91885 -0.115592 0)
(0.920661 -0.103558 0)
(0.922911 -0.0929725 0)
(0.925441 -0.0836543 0)
(0.928134 -0.0754413 0)
(0.930903 -0.0681909 0)
(0.933687 -0.0617787 0)
(0.936442 -0.0560964 0)
(0.939136 -0.0510504 0)
(0.94175 -0.0465597 0)
(0.944269 -0.0425544 0)
(0.946685 -0.0389741 0)
(0.948995 -0.0357667 0)
(0.951197 -0.032887 0)
(0.971372 -0.236963 0)
(0.956913 -0.213457 0)
(0.9467 -0.191658 0)
(0.939788 -0.17178 0)
(0.935405 -0.153862 0)
(0.932932 -0.137835 0)
(0.931884 -0.123575 0)
(0.931885 -0.110926 0)
(0.932645 -0.0997256 0)
(0.933945 -0.0898159 0)
(0.935616 -0.0810473 0)
(0.937534 -0.0732834 0)
(0.939605 -0.0664016 0)
(0.941758 -0.0602932 0)
(0.943943 -0.0548624 0)
(0.946122 -0.0500255 0)
(0.948269 -0.0457093 0)
(0.950364 -0.0418502 0)
(0.952396 -0.0383928 0)
(0.954354 -0.035289 0)
(1 -0.228268 0)
(0.982509 -0.208449 0)
(0.969358 -0.189337 0)
(0.959723 -0.171373 0)
(0.952884 -0.154783 0)
(0.948239 -0.139652 0)
(0.945291 -0.125968 0)
(0.943643 -0.113666 0)
(0.94298 -0.10265 0)
(0.943053 -0.0928092 0)
(0.94367 -0.0840308 0)
(0.94468 -0.0762039 0)
(0.945967 -0.0692246 0)
(0.947445 -0.0629976 0)
(0.949045 -0.0574364 0)
(0.950717 -0.052464 0)
(0.952422 -0.0480116 0)
(0.954132 -0.0440188 0)
(0.955826 -0.0404321 0)
(0.957488 -0.0372047 0)
(1.01749 -0.208449 0)
(1 -0.19304 0)
(0.986252 -0.177611 0)
(0.975657 -0.162657 0)
(0.967666 -0.148487 0)
(0.961791 -0.135274 0)
(0.957612 -0.123094 0)
(0.95478 -0.111959 0)
(0.953007 -0.101839 0)
(0.952057 -0.0926795 0)
(0.951743 -0.0844121 0)
(0.951912 -0.0769629 0)
(0.952447 -0.0702575 0)
(0.953252 -0.0642237 0)
(0.954253 -0.0587935 0)
(0.955392 -0.053904 0)
(0.956624 -0.0494981 0)
(0.957914 -0.045524 0)
(0.959234 -0.0419352 0)
(0.960565 -0.0386902 0)
(1.03064 -0.189337 0)
(1.01375 -0.177611 0)
(1 -0.165379 0)
(0.988999 -0.153135 0)
(0.980344 -0.141219 0)
(0.973657 -0.129853 0)
(0.968597 -0.119169 0)
(0.964868 -0.109234 0)
(0.962217 -0.100066 0)
(0.960432 -0.0916568 0)
(0.959336 -0.083975 0)
(0.958785 -0.0769787 0)
(0.95866 -0.0706196 0)
(0.958865 -0.0648471 0)
(0.959325 -0.0596106 0)
(0.959976 -0.0548615 0)
(0.96077 -0.0505537 0)
(0.961666 -0.0466447 0)
(0.962634 -0.0430952 0)
(0.963648 -0.0398695 0)
(1.04028 -0.171373 0)
(1.02434 -0.162657 0)
(1.011 -0.153135 0)
(1 -0.143264 0)
(0.991061 -0.133385 0)
(0.983902 -0.12374 0)
(0.978258 -0.114489 0)
(0.973885 -0.105734 0)
(0.970569 -0.0975321 0)
(0.968123 -0.0899045 0)
(0.96639 -0.0828514 0)
(0.965234 -0.0763569 0)
(0.964545 -0.0703952 0)
(0.964228 -0.0649348 0)
(0.964207 -0.0599409 0)
(0.964419 -0.0553781 0)
(0.964814 -0.0512112 0)
(0.965347 -0.0474065 0)
(0.965987 -0.043932 0)
(0.966705 -0.0407579 0)
(1.04712 -0.154783 0)
(1.03233 -0.148487 0)
(1.01966 -0.141219 0)
(1.00894 -0.133385 0)
(1 -0.125306 0)
(0.992638 -0.117221 0)
(0.986652 -0.109304 0)
(0.981849 -0.101678 0)
(0.978053 -0.0944194 0)
(0.975106 -0.0875752 0)
(0.972869 -0.0811675 0)
(0.971221 -0.0752013 0)
(0.970059 -0.0696692 0)
(0.969296 -0.0645557 0)
(0.968858 -0.0598402 0)
(0.968683 -0.0554989 0)
(0.968719 -0.0515068 0)
(0.968924 -0.0478384 0)
(0.969263 -0.0444688 0)
(0.969706 -0.0413739 0)
(1.05176 -0.139652 0)
(1.03821 -0.135274 0)
(1.02634 -0.129853 0)
(1.0161 -0.12374 0)
(1.00736 -0.117221 0)
(1 -0.110524 0)
(0.993865 -0.103824 0)
(0.98881 -0.0972479 0)
(0.984693 -0.0908884 0)
(0.981383 -0.0848065 0)
(0.978762 -0.0790403 0)
(0.976724 -0.0736103 0)
(0.975178 -0.0685237 0)
(0.974042 -0.0637782 0)
(0.973247 -0.059365 0)
(0.972736 -0.0552706 0)
(0.972457 -0.0514788 0)
(0.972369 -0.0479718 0)
(0.972436 -0.0447311 0)
(0.972628 -0.0417381 0)
(1.05471 -0.125968 0)
(1.04239 -0.123094 0)
(1.0314 -0.119169 0)
(1.02174 -0.114489 0)
(1.01335 -0.109304 0)
(1.00613 -0.103824 0)
(1 -0.0982115 0)
(0.994834 -0.0925968 0)
(0.990527 -0.087076 0)
(0.986973 -0.0817192 0)
(0.984074 -0.0765748 0)
(0.981739 -0.0716743 0)
(0.979887 -0.0670359 0)
(0.978447 -0.0626677 0)
(0.977355 -0.0585705 0)
(0.976557 -0.0547394 0)
(0.976006 -0.0511659 0)
(0.97566 -0.0478389 0)
(0.975484 -0.0447458 0)
(0.97545 -0.041873 0)
(1.05636 -0.113666 0)
(1.04522 -0.111959 0)
(1.03513 -0.109234 0)
(1.02612 -0.105734 0)
(1.01815 -0.101678 0)
(1.01119 -0.0972479 0)
(1.00517 -0.0925968 0)
(1 -0.0878474 0)
(0.995609 -0.0830961 0)
(0.99191 -0.0784166 0)
(0.988823 -0.0738631 0)
(0.986272 -0.0694745 0)
(0.984187 -0.0652766 0)
(0.982505 -0.0612855 0)
(0.981171 -0.0575092 0)
(0.980134 -0.0539502 0)
(0.97935 -0.0506062 0)
(0.97878 -0.047472 0)
(0.978393 -0.04454 0)
(0.978158 -0.0418013 0)
(1.05702 -0.10265 0)
(1.04699 -0.101839 0)
(1.03778 -0.100066 0)
(1.02943 -0.0975321 0)
(1.02195 -0.0944194 0)
(1.01531 -0.0908884 0)
(1.00947 -0.087076 0)
(1.00439 -0.0830961 0)
(1 -0.0790414 0)
(0.996237 -0.0749852 0)
(0.993037 -0.0709845 0)
(0.990339 -0.0670822 0)
(0.988084 -0.0633093 0)
(0.986218 -0.0596873 0)
(0.98469 -0.0562301 0)
(0.983458 -0.0529454 0)
(0.98248 -0.0498364 0)
(0.98172 -0.0469025 0)
(0.981149 -0.0441408 0)
(0.980738 -0.0415461 0)
(1.05695 -0.0928092 0)
(1.04794 -0.0926795 0)
(1.03957 -0.0916568 0)
(1.03188 -0.0899045 0)
(1.02489 -0.0875752 0)
(1.01862 -0.0848065 0)
(1.01303 -0.0817192 0)
(1.00809 -0.0784166 0)
(1.00376 -0.0749852 0)
(1 -0.071496 0)
(0.99675 -0.0680057 0)
(0.993964 -0.064559 0)
(0.991593 -0.0611898 0)
(0.989592 -0.0579234 0)
(0.987916 -0.0547776 0)
(0.986528 -0.0517644 0)
(0.985391 -0.0488909 0)
(0.984473 -0.0461607 0)
(0.983745 -0.0435744 0)
(0.983182 -0.0411301 0)
(1.05633 -0.0840308 0)
(1.04826 -0.0844121 0)
(1.04066 -0.083975 0)
(1.03361 -0.0828514 0)
(1.02713 -0.0811675 0)
(1.02124 -0.0790403 0)
(1.01593 -0.0765748 0)
(1.01118 -0.0738631 0)
(1.00696 -0.0709845 0)
(1.00325 -0.0680057 0)
(1 -0.0649816 0)
(0.997174 -0.0619568 0)
(0.994734 -0.0589664 0)
(0.99264 -0.0560379 0)
(0.990856 -0.0531917 0)
(0.989348 -0.0504429 0)
(0.988084 -0.0478017 0)
(0.987036 -0.0452747 0)
(0.986178 -0.0428655 0)
(0.985485 -0.0405751 0)
(1.05532 -0.0762039 0)
(1.04809 -0.0769629 0)
(1.04122 -0.0769787 0)
(1.03477 -0.0763569 0)
(1.02878 -0.0752013 0)
(1.02328 -0.0736103 0)
(1.01826 -0.0716743 0)
(1.01373 -0.0694745 0)
(1.00966 -0.0670822 0)
(1.00604 -0.064559 0)
(1.00283 -0.0619568 0)
(1 -0.0593187 0)
(0.997528 -0.05668 0)
(0.995378 -0.054069 0)
(0.99352 -0.0515078 0)
(0.991924 -0.0490132 0)
(0.990563 -0.0465979 0)
(0.989411 -0.0442706 0)
(0.988445 -0.0420374 0)
(0.987643 -0.0399016 0)
(1.05403 -0.0692246 0)
(1.04755 -0.0702575 0)
(1.04134 -0.0706196 0)
(1.03546 -0.0703952 0)
(1.02994 -0.0696692 0)
(1.02482 -0.0685237 0)
(1.02011 -0.0670359 0)
(1.01581 -0.0652766 0)
(1.01192 -0.0633093 0)
(1.00841 -0.0611898 0)
(1.00527 -0.0589664 0)
(1.00247 -0.05668 0)
(1 -0.054365 0)
(0.997825 -0.0520495 0)
(0.995921 -0.0497564 0)
(0.994265 -0.0475037 0)
(0.992832 -0.0453054 0)
(0.9916 -0.0431722 0)
(0.990548 -0.0411116 0)
(0.989658 -0.0391289 0)
(1.05255 -0.0629976 0)
(1.04675 -0.0642237 0)
(1.04113 -0.0648471 0)
(1.03577 -0.0649348 0)
(1.0307 -0.0645557 0)
(1.02596 -0.0637782 0)
(1.02155 -0.0626677 0)
(1.01749 -0.0612855 0)
(1.01378 -0.0596873 0)
(1.01041 -0.0579234 0)
(1.00736 -0.0560379 0)
(1.00462 -0.054069 0)
(1.00218 -0.0520495 0)
(1 -0.0500069 0)
(0.998076 -0.0479639 0)
(0.996383 -0.0459391 0)
(0.9949 -0.0439475 0)
(0.993609 -0.0420006 0)
(0.992491 -0.0401075 0)
(0.991529 -0.0382748 0)
(1.05095 -0.0574364 0)
(1.04575 -0.0587935 0)
(1.04068 -0.0596106 0)
(1.03579 -0.0599409 0)
(1.03114 -0.0598402 0)
(1.02675 -0.059365 0)
(1.02264 -0.0585705 0)
(1.01883 -0.0575092 0)
(1.01531 -0.0562301 0)
(1.01208 -0.0547776 0)
(1.00914 -0.0531917 0)
(1.00648 -0.0515078 0)
(1.00408 -0.0497564 0)
(1.00192 -0.0479639 0)
(1 -0.0461525 0)
(0.99829 -0.0443409 0)
(0.996777 -0.0425443 0)
(0.995445 -0.040775 0)
(0.994278 -0.0390428 0)
(0.993261 -0.0373554 0)
(1.04928 -0.052464 0)
(1.04461 -0.053904 0)
(1.04002 -0.0548615 0)
(1.03558 -0.0553781 0)
(1.03132 -0.0554989 0)
(1.02726 -0.0552706 0)
(1.02344 -0.0547394 0)
(1.01987 -0.0539502 0)
(1.01654 -0.0529454 0)
(1.01347 -0.0517644 0)
(1.01065 -0.0504429 0)
(1.00808 -0.0490132 0)
(1.00574 -0.0475037 0)
(1.00362 -0.0459391 0)
(1.00171 -0.0443409 0)
(1 -0.0427272 0)
(0.998473 -0.0411133 0)
(0.997116 -0.0395118 0)
(0.995915 -0.0379331 0)
(0.994857 -0.0363853 0)
(1.04758 -0.0480116 0)
(1.04338 -0.0494981 0)
(1.03923 -0.0505537 0)
(1.03519 -0.0512112 0)
(1.03128 -0.0515068 0)
(1.02754 -0.0514788 0)
(1.02399 -0.0511659 0)
(1.02065 -0.0506062 0)
(1.01752 -0.0498364 0)
(1.01461 -0.0488909 0)
(1.01192 -0.0478017 0)
(1.00944 -0.0465979 0)
(1.00717 -0.0453054 0)
(1.0051 -0.0439475 0)
(1.00322 -0.0425443 0)
(1.00153 -0.0411133 0)
(1 -0.0396696 0)
(0.998631 -0.0382256 0)
(0.997409 -0.0367921 0)
(0.996323 -0.0353775 0)
(1.04587 -0.0440188 0)
(1.04209 -0.045524 0)
(1.03833 -0.0466447 0)
(1.03465 -0.0474065 0)
(1.03108 -0.0478384 0)
(1.02763 -0.0479718 0)
(1.02434 -0.0478389 0)
(1.02122 -0.047472 0)
(1.01828 -0.0469025 0)
(1.01553 -0.0461607 0)
(1.01296 -0.0452747 0)
(1.01059 -0.0442706 0)
(1.0084 -0.0431722 0)
(1.00639 -0.0420006 0)
(1.00456 -0.040775 0)
(1.00288 -0.0395118 0)
(1.00137 -0.0382256 0)
(1 -0.0369288 0)
(0.998768 -0.0356317 0)
(0.997664 -0.0343434 0)
(1.04417 -0.0404321 0)
(1.04077 -0.0419352 0)
(1.03737 -0.0430952 0)
(1.03401 -0.043932 0)
(1.03074 -0.0444688 0)
(1.02756 -0.0447311 0)
(1.02452 -0.0447458 0)
(1.02161 -0.04454 0)
(1.01885 -0.0441408 0)
(1.01625 -0.0435744 0)
(1.01382 -0.0428655 0)
(1.01156 -0.0420374 0)
(1.00945 -0.0411116 0)
(1.00751 -0.0401075 0)
(1.00572 -0.0390428 0)
(1.00408 -0.0379331 0)
(1.00259 -0.0367921 0)
(1.00123 -0.0356317 0)
(1 -0.0344625 0)
(0.998888 -0.0332931 0)
(1.04251 -0.0372047 0)
(1.03943 -0.0386902 0)
(1.03635 -0.0398695 0)
(1.0333 -0.0407579 0)
(1.03029 -0.0413739 0)
(1.02737 -0.0417381 0)
(1.02455 -0.041873 0)
(1.02184 -0.0418013 0)
(1.01926 -0.0415461 0)
(1.01682 -0.0411301 0)
(1.01452 -0.0405751 0)
(1.01236 -0.0399016 0)
(1.01034 -0.0391289 0)
(1.00847 -0.0382748 0)
(1.00674 -0.0373554 0)
(1.00514 -0.0363853 0)
(1.00368 -0.0353775 0)
(1.00234 -0.0343434 0)
(1.00111 -0.0332931 0)
(1 -0.0322353 0)
(1.23725 -0.0181777 0)
(1.23172 -0.0541093 0)
(1.2208 -0.0887801 0)
(1.20474 -0.121384 0)
(1.18392 -0.151166 0)
(1.15883 -0.17744 0)
(1.13006 -0.199605 0)
(1.09827 -0.217156 0)
(1.0642 -0.229701 0)
(1.02863 -0.236963 0)
(1.21573 -0.0156774 0)
(1.21122 -0.046702 0)
(1.20229 -0.0767443 0)
(1.18916 -0.105177 0)
(1.1721 -0.131413 0)
(1.15148 -0.15492 0)
(1.12775 -0.175229 0)
(1.1014 -0.191949 0)
(1.07299 -0.204766 0)
(1.04309 -0.213457 0)
(1.197 -0.0136088 0)
(1.19328 -0.0405636 0)
(1.18591 -0.0667372 0)
(1.17506 -0.0916318 0)
(1.16094 -0.114783 0)
(1.14386 -0.135769 0)
(1.12415 -0.154225 0)
(1.1022 -0.169842 0)
(1.07844 -0.182378 0)
(1.0533 -0.191658 0)
(1.18061 -0.0118831 0)
(1.1775 -0.0354361 0)
(1.17136 -0.0583556 0)
(1.1623 -0.0802387 0)
(1.15051 -0.100711 0)
(1.13624 -0.119435 0)
(1.11975 -0.136119 0)
(1.10136 -0.150522 0)
(1.0814 -0.162453 0)
(1.06021 -0.17178 0)
(1.16618 -0.0104326 0)
(1.16356 -0.0311216 0)
(1.15839 -0.0512873 0)
(1.15076 -0.070598 0)
(1.14083 -0.0887462 0)
(1.12879 -0.105457 0)
(1.11489 -0.120495 0)
(1.09937 -0.133666 0)
(1.08251 -0.144822 0)
(1.06459 -0.153862 0)
(1.15341 -0.00920484 0)
(1.15119 -0.0274665 0)
(1.14679 -0.0452887 0)
(1.1403 -0.0623935 0)
(1.13186 -0.0785244 0)
(1.12163 -0.0934533 0)
(1.10982 -0.106986 0)
(1.09663 -0.118966 0)
(1.0823 -0.129275 0)
(1.06707 -0.137835 0)
(1.14206 -0.00815897 0)
(1.14015 -0.0243507 0)
(1.13637 -0.0401677 0)
(1.13081 -0.0553736 0)
(1.12358 -0.0697509 0)
(1.11482 -0.0831072 0)
(1.1047 -0.0952801 0)
(1.09341 -0.10614 0)
(1.08115 -0.115592 0)
(1.06812 -0.123575 0)
(1.13192 -0.00726276 0)
(1.13027 -0.0216792 0)
(1.127 -0.0357718 0)
(1.1222 -0.0493367 0)
(1.11594 -0.0621867 0)
(1.10838 -0.0741573 0)
(1.09964 -0.0851102 0)
(1.08991 -0.0949366 0)
(1.07934 -0.103558 0)
(1.06811 -0.110926 0)
(1.12282 -0.00649056 0)
(1.12139 -0.0193762 0)
(1.11854 -0.0319787 0)
(1.11435 -0.04412 0)
(1.10891 -0.055637 0)
(1.10232 -0.0663869 0)
(1.09473 -0.0762505 0)
(1.08626 -0.0851344 0)
(1.07709 -0.0929725 0)
(1.06735 -0.0997256 0)
(1.11464 -0.0058218 0)
(1.11338 -0.017381 0)
(1.11088 -0.0286901 0)
(1.1072 -0.0395917 0)
(1.10242 -0.0499424 0)
(1.09665 -0.0596165 0)
(1.08999 -0.0685098 0)
(1.08258 -0.0765413 0)
(1.07456 -0.0836543 0)
(1.06606 -0.0898159 0)
(1.10725 -0.00523987 0)
(1.10613 -0.0156444 0)
(1.10392 -0.0258258 0)
(1.10067 -0.0356441 0)
(1.09644 -0.0449715 0)
(1.09134 -0.0536966 0)
(1.08547 -0.0617272 0)
(1.07893 -0.0689919 0)
(1.07187 -0.0754413 0)
(1.06438 -0.0810473 0)
(1.10055 -0.00473124 0)
(1.09955 -0.0141261 0)
(1.09758 -0.0233205 0)
(1.09469 -0.0321887 0)
(1.09093 -0.040616 0)
(1.08639 -0.0485028 0)
(1.08117 -0.0557665 0)
(1.07537 -0.0623438 0)
(1.0691 -0.0681909 0)
(1.06247 -0.0732834 0)
(1.09445 -0.00428483 0)
(1.09356 -0.0127933 0)
(1.0918 -0.0211204 0)
(1.0892 -0.0291525 0)
(1.08584 -0.036786 0)
(1.08177 -0.0439309 0)
(1.0771 -0.050513 0)
(1.07191 -0.0564753 0)
(1.06631 -0.0617787 0)
(1.0604 -0.0664016 0)
(1.0889 -0.00389148 0)
(1.08809 -0.0116188 0)
(1.0865 -0.0191811 0)
(1.08416 -0.026475 0)
(1.08113 -0.0334064 0)
(1.07747 -0.0398936 0)
(1.07326 -0.0458693 0)
(1.0686 -0.051282 0)
(1.06356 -0.0560964 0)
(1.05824 -0.0602932 0)
(1.08382 -0.00354362 0)
(1.08309 -0.01058 0)
(1.08164 -0.0174655 0)
(1.07952 -0.0241056 0)
(1.07677 -0.0304144 0)
(1.07346 -0.0363174 0)
(1.06965 -0.0417532 0)
(1.06542 -0.0466748 0)
(1.06086 -0.0510504 0)
(1.05606 -0.0548624 0)
(1.07916 -0.00323493 0)
(1.07849 -0.00965804 0)
(1.07718 -0.0159427 0)
(1.07524 -0.022002 0)
(1.07274 -0.0277574 0)
(1.06972 -0.0331403 0)
(1.06625 -0.0380946 0)
(1.0624 -0.0425775 0)
(1.05825 -0.0465597 0)
(1.05388 -0.0500255 0)
(1.07488 -0.00296009 0)
(1.07427 -0.0088372 0)
(1.07306 -0.0145867 0)
(1.07129 -0.0201287 0)
(1.069 -0.0253906 0)
(1.06623 -0.0303096 0)
(1.06305 -0.034834 0)
(1.05953 -0.0389245 0)
(1.05573 -0.0425544 0)
(1.05173 -0.0457093 0)
(1.07094 -0.00271464 0)
(1.07038 -0.00810411 0)
(1.06927 -0.0133756 0)
(1.06764 -0.0184554 0)
(1.06552 -0.0232765 0)
(1.06297 -0.0277807 0)
(1.06005 -0.0319206 0)
(1.05681 -0.0356599 0)
(1.05331 -0.0389741 0)
(1.04964 -0.0418502 0)
(1.0673 -0.00249479 0)
(1.06678 -0.00744749 0)
(1.06575 -0.0122909 0)
(1.06424 -0.0169567 0)
(1.06229 -0.0213827 0)
(1.05993 -0.0255154 0)
(1.05723 -0.0293108 0)
(1.05423 -0.0327354 0)
(1.051 -0.0357667 0)
(1.0476 -0.0383928 0)
(1.06394 -0.00229734 0)
(1.06345 -0.00685776 0)
(1.0625 -0.0113167 0)
(1.0611 -0.0156106 0)
(1.05928 -0.0196821 0)
(1.05709 -0.0234812 0)
(1.05458 -0.0269672 0)
(1.0518 -0.0301094 0)
(1.0488 -0.032887 0)
(1.04565 -0.035289 0)
(1.02062 0.262059 0)
(1.02291 0.291141 0)
(1.02561 0.325346 0)
(1.0288 0.365952 0)
(1.03263 0.414661 0)
(1.03729 0.473782 0)
(1.04301 0.546505 0)
(1.05016 0.637346 0)
(1.05925 0.752863 0)
(1.07106 0.902868 0)
(1.06137 0.255606 0)
(1.06818 0.283972 0)
(1.07619 0.317335 0)
(1.08569 0.356941 0)
(1.0971 0.404451 0)
(1.11094 0.462116 0)
(1.12797 0.533048 0)
(1.14925 0.621653 0)
(1.1763 0.734325 0)
(1.21142 0.880636 0)
(1.1006 0.242859 0)
(1.11176 0.269811 0)
(1.12489 0.30151 0)
(1.14048 0.339141 0)
(1.15917 0.384282 0)
(1.18187 0.439071 0)
(1.20979 0.506466 0)
(1.24466 0.590652 0)
(1.289 0.697705 0)
(1.34658 0.83672 0)
(1.13735 0.224133 0)
(1.15259 0.249006 0)
(1.17052 0.278261 0)
(1.1918 0.31299 0)
(1.21733 0.35465 0)
(1.24832 0.405214 0)
(1.28643 0.467413 0)
(1.33404 0.545107 0)
(1.39459 0.643906 0)
(1.47321 0.772201 0)
(1.17072 0.199887 0)
(1.18967 0.22207 0)
(1.21195 0.24816 0)
(1.2384 0.279133 0)
(1.27013 0.316286 0)
(1.30865 0.36138 0)
(1.35602 0.41685 0)
(1.4152 0.48614 0)
(1.49046 0.574251 0)
(1.58818 0.688668 0)
(1.19989 0.17072 0)
(1.22207 0.189666 0)
(1.24816 0.211949 0)
(1.27913 0.238402 0)
(1.31629 0.270134 0)
(1.36138 0.308648 0)
(1.41685 0.356024 0)
(1.48614 0.415203 0)
(1.57425 0.490457 0)
(1.68867 0.588178 0)
(1.22413 0.137349 0)
(1.24901 0.152591 0)
(1.27826 0.170519 0)
(1.31299 0.191801 0)
(1.35465 0.21733 0)
(1.40521 0.248316 0)
(1.46741 0.286431 0)
(1.54511 0.334042 0)
(1.64391 0.394586 0)
(1.7722 0.473205 0)
(1.24286 0.100596 0)
(1.26981 0.111759 0)
(1.30151 0.12489 0)
(1.33914 0.140477 0)
(1.38428 0.159175 0)
(1.43907 0.181869 0)
(1.50647 0.209785 0)
(1.59065 0.244656 0)
(1.6977 0.288999 0)
(1.83672 0.34658 0)
(1.25561 0.0613656 0)
(1.28397 0.0681757 0)
(1.31734 0.0761854 0)
(1.35694 0.085694 0)
(1.40445 0.0971001 0)
(1.46212 0.110944 0)
(1.53305 0.127973 0)
(1.62165 0.149245 0)
(1.73432 0.176296 0)
(1.88063 0.211422 0)
(1.26206 0.0206245 0)
(1.29114 0.0229133 0)
(1.32535 0.0256053 0)
(1.36595 0.0288011 0)
(1.41466 0.0326346 0)
(1.47378 0.0372874 0)
(1.5465 0.0430108 0)
(1.63735 0.0501602 0)
(1.75286 0.0592515 0)
(1.90287 0.0710571 0)
(0.737941 0.0206245 0)
(0.708859 0.0229133 0)
(0.674654 0.0256053 0)
(0.634048 0.0288011 0)
(0.585339 0.0326346 0)
(0.526219 0.0372874 0)
(0.453496 0.0430108 0)
(0.362654 0.0501602 0)
(0.247138 0.0592515 0)
(0.0971338 0.0710571 0)
(0.744394 0.0613656 0)
(0.716028 0.0681757 0)
(0.682665 0.0761854 0)
(0.643059 0.085694 0)
(0.595549 0.0971001 0)
(0.537885 0.110944 0)
(0.466952 0.127973 0)
(0.378348 0.149245 0)
(0.265676 0.176296 0)
(0.119365 0.211422 0)
(0.757141 0.100596 0)
(0.730189 0.111759 0)
(0.69849 0.12489 0)
(0.660859 0.140477 0)
(0.615718 0.159175 0)
(0.560929 0.181869 0)
(0.493534 0.209785 0)
(0.409348 0.244656 0)
(0.302295 0.288999 0)
(0.163281 0.34658 0)
(0.775867 0.137349 0)
(0.750994 0.152591 0)
(0.721739 0.170519 0)
(0.68701 0.191801 0)
(0.64535 0.21733 0)
(0.594786 0.248316 0)
(0.532587 0.286431 0)
(0.454893 0.334042 0)
(0.356094 0.394586 0)
(0.227799 0.473205 0)
(0.800113 0.17072 0)
(0.77793 0.189666 0)
(0.75184 0.211949 0)
(0.720867 0.238402 0)
(0.683714 0.270134 0)
(0.63862 0.308648 0)
(0.58315 0.356024 0)
(0.51386 0.415203 0)
(0.425749 0.490457 0)
(0.311332 0.588178 0)
(0.82928 0.199887 0)
(0.810334 0.22207 0)
(0.788051 0.24816 0)
(0.761598 0.279133 0)
(0.729866 0.316286 0)
(0.691352 0.36138 0)
(0.643976 0.41685 0)
(0.584797 0.48614 0)
(0.509543 0.574251 0)
(0.411821 0.688668 0)
(0.862651 0.224133 0)
(0.847409 0.249006 0)
(0.829481 0.278261 0)
(0.808199 0.31299 0)
(0.78267 0.35465 0)
(0.751684 0.405214 0)
(0.713569 0.467413 0)
(0.665958 0.545107 0)
(0.605414 0.643906 0)
(0.526794 0.772201 0)
(0.899404 0.242859 0)
(0.888241 0.269811 0)
(0.87511 0.30151 0)
(0.859523 0.339141 0)
(0.840825 0.384282 0)
(0.818131 0.439071 0)
(0.790215 0.506466 0)
(0.755344 0.590652 0)
(0.711001 0.697705 0)
(0.653419 0.83672 0)
(0.938634 0.255606 0)
(0.931824 0.283972 0)
(0.923815 0.317335 0)
(0.914306 0.356941 0)
(0.9029 0.404451 0)
(0.889056 0.462116 0)
(0.872026 0.533048 0)
(0.850754 0.621653 0)
(0.823704 0.734325 0)
(0.788578 0.880636 0)
(0.979376 0.262059 0)
(0.977087 0.291141 0)
(0.974395 0.325346 0)
(0.971199 0.365952 0)
(0.967365 0.414661 0)
(0.962713 0.473782 0)
(0.956989 0.546505 0)
(0.94984 0.637346 0)
(0.940748 0.752863 0)
(0.928943 0.902868 0)
(0.936065 0.00229734 0)
(0.932699 0.00249479 0)
(0.92906 0.00271464 0)
(0.925119 0.00296009 0)
(0.920839 0.00323493 0)
(0.916183 0.00354362 0)
(0.911103 0.00389148 0)
(0.905547 0.00428483 0)
(0.899455 0.00473124 0)
(0.892754 0.00523987 0)
(0.88536 0.0058218 0)
(0.877176 0.00649056 0)
(0.868083 0.00726276 0)
(0.857943 0.00815897 0)
(0.84659 0.00920484 0)
(0.83382 0.0104326 0)
(0.819389 0.0118831 0)
(0.802997 0.0136088 0)
(0.784272 0.0156774 0)
(0.762749 0.0181777 0)
(0.936548 0.00685776 0)
(0.933219 0.00744749 0)
(0.929622 0.00810411 0)
(0.925729 0.0088372 0)
(0.921505 0.00965804 0)
(0.916913 0.01058 0)
(0.911908 0.0116188 0)
(0.90644 0.0127933 0)
(0.900451 0.0141261 0)
(0.893871 0.0156444 0)
(0.886624 0.017381 0)
(0.878614 0.0193762 0)
(0.869733 0.0216792 0)
(0.859851 0.0243507 0)
(0.848813 0.0274665 0)
(0.836436 0.0311216 0)
(0.822495 0.0354361 0)
(0.806721 0.0405636 0)
(0.788783 0.046702 0)
(0.768276 0.0541093 0)
(0.937502 0.0113167 0)
(0.934246 0.0122909 0)
(0.930733 0.0133756 0)
(0.926935 0.0145867 0)
(0.922821 0.0159427 0)
(0.918356 0.0174655 0)
(0.913499 0.0191811 0)
(0.908204 0.0211204 0)
(0.902419 0.0233205 0)
(0.896082 0.0258258 0)
(0.889122 0.0286901 0)
(0.881459 0.0319787 0)
(0.872997 0.0357718 0)
(0.863625 0.0401677 0)
(0.853214 0.0452887 0)
(0.841613 0.0512873 0)
(0.828641 0.0583556 0)
(0.814089 0.0667372 0)
(0.797706 0.0767443 0)
(0.779198 0.0887801 0)
(0.938903 0.0156106 0)
(0.935755 0.0169567 0)
(0.932365 0.0184554 0)
(0.928707 0.0201287 0)
(0.924755 0.022002 0)
(0.920477 0.0241056 0)
(0.915838 0.026475 0)
(0.910799 0.0291525 0)
(0.905314 0.0321887 0)
(0.899334 0.0356441 0)
(0.8928 0.0395917 0)
(0.885648 0.04412 0)
(0.877804 0.0493367 0)
(0.869186 0.0553736 0)
(0.859701 0.0623935 0)
(0.849244 0.070598 0)
(0.8377 0.0802387 0)
(0.824944 0.0916318 0)
(0.810842 0.105177 0)
(0.795258 0.121384 0)
(0.940719 0.0196821 0)
(0.93771 0.0213827 0)
(0.934479 0.0232765 0)
(0.931004 0.0253906 0)
(0.927261 0.0277574 0)