/*--------------------------------*- C++ -*----------------------------------*\
| =========                 |                                                 |
| \\      /  F ield         | OpenFOAM: The Open Source CFD Toolbox           |
|  \\    /   O peration     | Version:  2206                                  |
|   \\  /    A nd           | Website:  www.openfoam.com                      |
|    \\/     M anipulation  |                                                 |
\*---------------------------------------------------------------------------*/
FoamFile
{
    version     2.0;
    format      ascii;
    arch        "LSB;label=32;scalar=64";
    class       surfaceScalarField;
    location    "4";
    object      phi;
}
// * * * * * * * * * * * * * * * * * * * * * * * * * * * * * * * * * * * * * //

dimensions      [0 3 -1 0 0 0 0];

oriented        oriented;

internalField   nonuniform List<scalar> 
5194
(
1.8417699e-05
3.4760198e-06
1.5151935e-05
3.2657647e-06
7.3118e-05
9.3477988e-06
1.2128707e-05
3.0232283e-06
6.7674002e-05
8.7097632e-06
0.00013212698
1.673183e-05
9.3774584e-06
2.7512486e-06
6.2728273e-05
7.968957e-06
0.00012506154
1.5775202e-05
0.00018066083
2.4156222e-05
6.9250313e-06
2.4524273e-06
5.8333051e-05
7.1464712e-06
0.00011845393
1.4576564e-05
0.00017314711
2.3288925e-05
0.0002121025
3.1672247e-05
4.7949353e-06
2.1300962e-06
5.4522288e-05
6.2631907e-06
0.00011241882
1.3181582e-05
0.00016570003
2.2023642e-05
0.00020456785
3.0823571e-05
0.0002399654
4.1965049e-05
3.0080483e-06
1.7868872e-06
5.1313741e-05
5.3386429e-06
0.00010704123
1.164078e-05
0.00015848197
2.0399642e-05
0.00019703971
2.9551782e-05
0.00022998436
4.0804605e-05
0.00027268015
5.3994236e-05
1.5853129e-06
1.4227356e-06
4.8713533e-05
4.3870954e-06
0.0001023736
1.0006278e-05
0.00015164727
1.8475486e-05
0.00018956577
2.7873584e-05
0.00022044317
3.9092975e-05
0.00026044377
5.304098e-05
0.00029295135
6.3185216e-05
5.5094844e-07
1.0343646e-06
4.6723143e-05
3.4131259e-06
9.8439722e-05
8.320972e-06
0.000145332
1.6321547e-05
0.00018222693
2.5814326e-05
0.00021140603
3.6910732e-05
0.00024837533
5.1161418e-05
0.00028241026
6.358207e-05
0.00028576603
6.6959026e-05
-6.5426631e-08
6.163752e-07
4.5346897e-05
2.4106104e-06
9.5246031e-05
6.6068174e-06
0.00013964808
1.4004889e-05
0.0001751497
2.3398777e-05
0.00020293738
3.4282969e-05
0.000236825
4.8461061e-05
0.00027092864
6.2643035e-05
0.00028028312
6.9064979e-05
0.00025427799
6.5320828e-05
-2.2645321e-07
1.610267e-07
4.4597717e-05
1.3655556e-06
9.2796931e-05
4.8597108e-06
0.0001346865
1.1568402e-05
0.00016849658
2.0658007e-05
0.00019510627
3.1229894e-05
0.00022603881
4.5069167e-05
0.00025899669
6.0393014e-05
0.00027331473
6.9611427e-05
0.00025417149
6.9171478e-05
0.00020194928
5.9691853e-05
5.758323e-08
-2.8403632e-07
4.4502896e-05
2.5584756e-07
9.1107812e-05
3.0546743e-06
0.00013052475
9.0214597e-06
0.00016243674
1.7628248e-05
0.00018792624
2.7838031e-05
0.00021604456
4.1224141e-05
0.00024705501
5.7010848e-05
0.00026513095
6.8576796e-05
0.00025226534
7.151757e-05
0.00020611949
6.5001268e-05
0.00014542754
4.9904462e-05
8.0197706e-07
-7.4439372e-07
4.5056983e-05
-8.3812266e-07
9.0212266e-05
1.1513943e-06
0.00012724122
6.3382038e-06
0.00015713729
1.4320909e-05
0.0001814028
2.4151695e-05
0.00020684397
3.703862e-05
0.00023558458
5.2694574e-05
0.00025608787
6.6053927e-05
0.00024858454
7.22576e-05
0.0002087647
6.8872358e-05
0.00015419251
5.6236294e-05
8.9040505e-05
-7.6728614e-05
3.7592572e-05
2.0164558e-06
-1.2144786e-06
4.6298902e-05
-1.986313e-06
9.0197056e-05
-8.2291229e-07
0.00012492443
3.4681809e-06
0.00015275829
1.0717202e-05
0.00017563194
2.0091761e-05
0.00019867562
3.232004e-05
0.00022517458
4.7448617e-05
0.00024665508
6.2127365e-05
0.00024327413
7.1364334e-05
0.00020989062
7.1131683e-05
0.00016181371
6.1251165e-05
0.00010040666
4.4870134e-05
2.9494747e-05
3.8025534e-05
-2.6526996e-05
2.6094033e-05
3.6821925e-06
-1.6657366e-06
4.8217802e-05
-3.1333783e-06
9.1105293e-05
-2.8945501e-06
0.00012373173
3.6979077e-07
0.00014945382
6.7726532e-06
0.00017077657
1.5572571e-05
0.00019178641
2.6980977e-05
0.00021603633
4.1458294e-05
0.00023702943
5.7074268e-05
0.00023646862
6.8932882e-05
0.00020958265
7.1672301e-05
0.00016815396
6.4791426e-05
0.00011050736
5.1150467e-05
4.9079337e-05
3.3816331e-05
1.7878683e-05
2.1330093e-05
-1.2326742e-05
1.7090682e-05
5.7517684e-06
-2.0695758e-06
5.0762091e-05
-4.2100255e-06
9.2963754e-05
-4.991839e-06
0.00012372731
-2.8901273e-06
0.00014737938
2.4442227e-06
0.00016698835
1.0560876e-05
0.00018608131
2.1277672e-05
0.00020770328
3.5314025e-05
0.00022698328
5.150444e-05
0.00022833634
6.5206547e-05
0.00020803372
7.0481817e-05
0.00017302023
6.6806032e-05
0.0001189668
5.6331987e-05
5.9377538e-05
4.0852266e-05
3.0970572e-05
2.4175853e-05
9.7140253e-06
5.3035843e-05
-4.7422561e-05
1.14774e-05
8.1537596e-06
-2.4019912e-06
5.3828717e-05
-5.1362011e-06
9.5728087e-05
-6.9743584e-06
0.00012496471
-6.229243e-06
0.00014669662
-2.2073649e-06
0.00016439861
5.0339648e-06
0.0001813438
1.5298381e-05
0.00019983881
2.9142136e-05
0.00021670805
4.5589251e-05
0.00021959572
6.0245055e-05
0.0002055967
6.7643561e-05
0.00017609265
6.7409396e-05
0.00012535625
6.0416583e-05
6.8652897e-05
4.7056628e-05
4.1081993e-05
3.0740845e-05
6.0400429e-05
1.6811267e-05
5.9754201e-06
0.00012157038
-0.00011966885
9.5758652e-06
1.0800764e-05
-2.6470047e-06
5.7264132e-05
-5.837407e-06
9.9260579e-05
-8.6686931e-06
0.00012735783
-9.3674736e-06
0.00014737633
-6.9089463e-06
0.00016307043
-8.7918573e-07
0.00017757841
8.7993538e-06
0.00019286785
2.2269343e-05
0.00020720482
3.8645373e-05
0.00021135578
5.382919e-05
0.0002024008
6.3440964e-05
0.00017678608
6.6950134e-05
0.00012924339
6.3522253e-05
7.6738338e-05
5.2331142e-05
5.1562598e-05
3.6576022e-05
6.9393681e-05
2.1747593e-05
0.00012577891
1.2602736e-05
6.3788677e-06
0.00020031797
-0.00020003551
9.2934042e-06
1.3593985e-05
-2.7932206e-06
6.0881451e-05
-6.2643235e-06
0.00010334357
-9.9203989e-06
0.00013069115
-1.200202e-05
0.00014916836
-1.1159503e-05
0.00016274035
-6.5788687e-06
0.00017460633
2.0929013e-06
0.00018693415
1.4733052e-05
0.00019873819
3.0735973e-05
0.00020345255
4.654861e-05
0.00019745972
5.8770264e-05
0.00017416354
6.6063505e-05
0.0001303389
6.5854627e-05
8.365653e-05
5.6604062e-05
6.2409578e-05
4.1484162e-05
7.9920788e-05
2.6048915e-05
0.00013222908
1.5297426e-05
0.00020237732
1.0543387e-05
7.7083652e-06
0.00025285937
-0.00025099303
7.4270666e-06
1.6433857e-05
-2.8398722e-06
6.4498072e-05
-6.4098409e-06
0.00010772501
-1.0645758e-05
0.00013467005
-1.3899292e-05
0.00015162271
-1.4456376e-05
0.00016277214
-1.1191294e-05
0.00017179527
-3.7678107e-06
0.00018064045
8.3866077e-06
0.00018936432
2.4106922e-05
0.00019354484
4.064368e-05
0.00018874161
5.526672e-05
0.00016740386
6.552995e-05
0.00012880151
6.7600895e-05
8.9723089e-05
5.9788067e-05
7.3749012e-05
4.5264628e-05
9.1927444e-05
2.9477506e-05
0.00014080855
1.7469444e-05
0.00020630503
1.136972e-05
0.00025559281
7.8099457e-06
6.6229412e-06
0.00025950544
-0.00025618232
4.1039408e-06
1.9237603e-05
-2.8037454e-06
6.7959094e-05
-6.3008939e-06
0.00011215816
-1.0842993e-05
0.00013900076
-1.4976467e-05
0.00015426525
-1.6541831e-05
0.00016241513
-1.4099363e-05
0.00016754526
-6.941286e-06
0.00017146532
5.407319e-06
0.00017634488
2.1406047e-05
0.00017925276
3.8399003e-05
0.00017516162
5.4223666e-05
0.00015692987
6.5740702e-05
0.00012559048
6.874098e-05
9.5602323e-05
6.1721661e-05
8.5842359e-05
4.769472e-05
0.00010539314
3.1798931e-05
0.00015137313
1.8912928e-05
0.00021211318
1.1661288e-05
0.000259246
7.7165294e-06
0.00026315242
4.1629701e-06
3.6741525e-06
0.00023516562
-0.00023213372
1.0720463e-06
2.1939422e-05
-2.7018189e-06
7.1139956e-05
-5.9846075e-06
0.00011642991
-1.0572643e-05
0.00014346381
-1.5306046e-05
0.00015679182
-1.7503036e-05
0.00016113806
-1.5264755e-05
0.00016066092
-7.215023e-06
0.0001584064
6.1176302e-06
0.00015907523
2.2676964e-05
0.00016108389
3.9574914e-05
0.00015844905
5.5111581e-05
0.00014501811
6.6135425e-05
0.00012245945
6.8871729e-05
0.00010223151
6.2111794e-05
9.9033777e-05
4.8530242e-05
0.00012030625
3.2781608e-05
0.00016375031
1.9421751e-05
0.0002197209
1.1305212e-05
0.00026381255
7.0947336e-06
0.00026705717
3.8117713e-06
0.00023834441
9.8417493e-07
8.9048054e-07
0.00020389807
-0.00020215241
-6.7361769e-07
2.4487216e-05
-2.5477937e-06
7.3950729e-05
-5.5125916e-06
0.0001203696
-9.9242958e-06
0.00014794565
-1.5054486e-05
0.00015915855
-1.7672782e-05
0.00015886991
-1.5234888e-05
0.00015135302
-5.9568491e-06
0.00014270442
8.4869566e-06
0.00014014655
2.5046313e-05
0.00014248518
4.1275674e-05
0.00014239225
5.5631712e-05
0.00013484217
6.5287529e-05
0.00012136577
6.722911e-05
0.00011056265
6.0540587e-05
0.00011364207
4.7503504e-05
0.00013663482
3.2201677e-05
0.00017773067
1.8801246e-05
0.00022895412
1.0188528e-05
0.00026921757
5.9001942e-06
0.00027113594
3.0159677e-06
0.0002415615
5.9468136e-07
0.00020572207
-8.3982967e-07
-6.523002e-07
0.00016818057
-0.00016763059
-1.2236032e-06
2.6839277e-05
-2.3520616e-06
7.633415e-05
-4.9312147e-06
0.00012384318
-8.9861803e-06
0.00015242179
-1.440043e-05
0.00016155019
-1.744612e-05
0.00015608689
-1.4889759e-05
0.00014119965
-5.0815249e-06
0.00012726035
9.4872249e-06
0.00012347402
2.5159487e-05
0.00012725504
4.0276457e-05
0.00013038194
5.3285979e-05
0.00012883203
6.1641849e-05
0.0001237036
6.2949698e-05
0.00012123236
5.6559402e-05
0.00012984275
4.4339904e-05
0.00015427439
2.9863935e-05
0.00019305512
1.6877225e-05
0.00023953025
8.2251154e-06
0.00027530596
4.1001325e-06
0.00027529483
1.7413012e-06
0.00024466452
-8.7047673e-08
0.00020748719
-1.1704321e-06
0.00016867731
-1.3365732e-06
-1.1710263e-06
0.00011335477
-0.0001139645
-6.1387645e-07
2.8962099e-05
-2.1228217e-06
7.8262542e-05
-4.2804542e-06
0.00012673803
-7.8260646e-06
0.0001569079
-1.3472295e-05
0.00016428291
-1.7133151e-05
0.00015364695
-1.5006183e-05
0.00013219434
-5.8844425e-06
0.00011482856
7.3502655e-06
0.00011166583
2.1295417e-05
0.00011746185
3.4952676e-05
0.00012392782
4.6730577e-05
0.00012786578
5.4252227e-05
0.00012987105
5.54744e-05
0.00013437232
4.9809731e-05
0.00014755247
3.8849686e-05
0.00017297968
2.5634611e-05
0.0002093914
1.3527653e-05
0.00025108376
5.3237121e-06
0.00028185334
1.6777383e-06
0.0002794439
-4.8933555e-08
0.00024748029
-1.0744695e-06
0.00020908789
-1.6877513e-06
0.00016902581
-1.5189291e-06
0.00011252125
-5.030519e-07
-7.3517999e-07
3.7552105e-05
-3.8165982e-05
3.0825971e-05
-1.8638717e-06
7.973516e-05
-3.5954393e-06
0.00012894714
-6.489564e-06
0.00016140093
-1.2319093e-05
0.00016768416
-1.6873546e-05
0.00015246992
-1.5956126e-05
0.00012583159
-8.6434336e-06
0.0001070409
1.9032191e-06
0.00010544008
1.3576017e-05
0.00011333046
2.5426809e-05
0.00012286385
3.6016646e-05
0.00013154149
4.3054872e-05
0.00013943851
4.4684762e-05
0.00014960853
4.0238193e-05
0.00016639941
3.0962789e-05
0.00019237068
1.9458687e-05
0.00022632512
8.7008906e-06
0.00026311587
1.4955435e-06
0.00028877824
-1.6011842e-06
0.00028344073
-2.3190909e-06
0.00024983321
-2.4018608e-06
0.00021040614
-2.3927159e-06
0.00016910897
-1.7709108e-06
0.00011140801
-4.0568317e-07
3.7049052e-05
3.2398278e-05
-1.5723066e-06
8.0773363e-05
-2.902075e-06
0.00013036558
-5.0138769e-06
0.0001658225
-1.0911132e-05
0.00017199182
-1.6626755e-05
0.00015325044
-1.7654062e-05
0.00012291211
-1.3036647e-05
0.0001038748
-5.4773405e-06
0.0001042875
3.0558005e-06
0.00011411128
1.279519e-05
0.00012621618
2.207448e-05
0.00013883202
2.8726107e-05
0.00015149908
3.0994304e-05
0.00016620584
2.8087455e-05
0.00018579761
2.0839995e-05
0.00021195068
1.1382792e-05
0.00024337208
2.4117329e-06
0.00027541483
-3.5980621e-06
0.00029580108
-5.5272975e-06
0.0002868654
-5.0258548e-06
0.00025155836
-4.0442424e-06
0.00021128558
-3.2813052e-06
0.00016879374
-2.0774895e-06
0.00010996066
-3.235667e-07
3.6643369e-05
3.3642861e-05
-1.2445836e-06
8.1407254e-05
-2.2061975e-06
0.0001309072
-3.4436979e-06
0.00016997843
-9.1698121e-06
0.00017729936
-1.621867e-05
0.00015633596
-1.9712271e-05
0.00012360387
-1.8345823e-05
0.00010501478
-1.4176619e-05
0.00010729276
-8.482604e-06
0.00011854364
-1.3765526e-06
0.00013289948
6.1118977e-06
0.00014859149
1.2315012e-05
0.00016510112
1.5124066e-05
0.00018337517
1.3824977e-05
0.00020509454
8.7905165e-06
0.00023110955
1.681125e-06
0.00025999274
-5.2378681e-06
0.00028734615
-9.519595e-06
0.0003022406
-1.0037579e-05
0.00028945559
-8.1174904e-06
0.00025249842
-5.9659085e-06
0.00021157742
-4.3360824e-06
0.00016792841
-2.4159692e-06
0.00010813934
-2.5616995e-07
3.6319802e-05
3.4528046e-05
-8.8518452e-07
8.1651933e-05
-1.4892623e-06
0.00013053377
-1.8327671e-06
0.00017356076
-7.0260185e-06
0.00018354366
-1.5414114e-05
0.00016175806
-2.1640774e-05
0.00012763799
-2.3746387e-05
0.00010969982
-2.3030872e-05
0.00011363536
-2.0519219e-05
0.00012610539
-1.6044357e-05
0.00014178465
-1.0261727e-05
0.0001597439
-5.0405072e-06
0.00017939377
-1.9776297e-06
0.00020048161
-1.9823723e-06
0.00022378039
-4.8608656e-06
0.00024938706
-9.4870004e-06
0.00027561678
-1.3942917e-05
0.00029828755
-1.6179268e-05
0.00030771023
-1.4989226e-05
0.00029092104
-1.1503028e-05
0.00025248833
-8.1074032e-06
0.00021114396
-5.532447e-06
0.000166362
-2.7696755e-06
0.00010592624
-2.0286604e-07
3.6063632e-05
3.5032219e-05
-5.0417302e-07
8.1510457e-05
-7.4370872e-07
0.00012926882
-2.2430322e-07
0.00017619657
-4.4685799e-06
0.00019050039
-1.3982743e-05
0.00016932374
-2.2979799e-05
0.00013452699
-2.8529779e-05
0.00011710084
-3.1147403e-05
0.00012246634
-3.1861856e-05
0.00013587183
-3.0285664e-05
0.00015228884
-2.6548551e-05
0.00017198009
-2.2497916e-05
0.00019377863
-1.9425367e-05
0.00021687142
-1.8367447e-05
0.00024107885
-1.9280837e-05
0.00026595668
-2.1430481e-05
0.00028950595
-2.3376176e-05
0.0003076602
-2.331557e-05
0.00031172165
-2.0190688e-05
0.00029097963
-1.5047819e-05
0.00025137264
-1.038734e-05
0.00020987268
-6.8361262e-06
0.00016396189
-3.1323392e-06
0.00010332211
-1.6554446e-07
3.5860766e-05
3.5147888e-05
-1.1566944e-07
8.097863e-05
2.7654231e-08
0.00012734588
1.17923e-06
0.00017753934
-1.5670774e-06
0.00019777826
-1.1746455e-05
0.00017868689
-2.3345884e-05
0.00014372263
-3.2175434e-05
0.00012643685
-3.7865789e-05
0.00013297477
-4.1655827e-05
0.00014715209
-4.3142112e-05
0.00016372474
-4.172156e-05
0.00018452281
-3.9091277e-05
0.00020772043
-3.643972e-05
0.00023197799
-3.4531931e-05
0.00025650717
-3.379577e-05
0.00028031318
-3.3637339e-05
0.00030113314
-3.3057665e-05
0.00031487577
-3.0591739e-05
0.00031379259
-2.538651e-05
0.00028936882
-1.8579881e-05
0.00024903221
-1.2707389e-05
0.00020767334
-8.1879963e-06
0.00016063228
-3.5065133e-06
0.00010034132
-1.5154934e-07
3.5695221e-05
3.4927815e-05
2.2007299e-07
8.0060936e-05
8.0202434e-07
0.00012491362
2.4599134e-06
0.00017716007
1.5585039e-06
0.00020480753
-8.5963449e-06
0.00018939757
-2.245714e-05
0.00015471836
-3.4341617e-05
0.0001370123
-4.275088e-05
0.00014440968
-4.9300701e-05
0.00015926546
-5.3769195e-05
0.00017562549
-5.5042858e-05
0.00019676404
-5.3962783e-05
0.00022076007
-5.2130915e-05
0.00024532292
-4.9784651e-05
0.00026959783
-4.7622589e-05
0.00029196598
-4.5448569e-05
0.0003099459
-4.2450098e-05
0.00031940761
-3.7589505e-05
0.00031348018
-3.0279332e-05
0.00028589354
-2.1911229e-05
0.00024541085
-1.4958516e-05
0.0002044628
-9.4968515e-06
0.00015634023
-3.8959497e-06
9.701006e-05
-1.752565e-07
3.5543672e-05
3.4413979e-05
5.1383586e-07
7.8779103e-05
1.5019062e-06
0.00012215138
3.5642622e-06
0.00017490889
4.711097e-06
0.00021082618
-4.4601446e-06
0.00020094235
-2.0141123e-05
0.0001670832
-3.482198e-05
0.00014824009
-4.5569416e-05
0.00015610386
-5.4445059e-05
0.00017152682
-6.1562059e-05
0.00018751842
-6.5662127e-05
0.00020826415
-6.6542975e-05
0.00023237515
-6.5577866e-05
0.000256516
-6.3324001e-05
0.00027990686
-6.0093684e-05
0.00030046847
-5.6125078e-05
0.00031545473
-5.0957398e-05
0.00032079431
-4.3836798e-05
0.00031045625
-3.4565578e-05
0.00028046667
-2.4852464e-05
0.00024053699
-1.7037375e-05
0.00020017393
-1.0669645e-05
0.00015113834
-4.2949644e-06
9.3369874e-05
-2.5576462e-07
3.5368415e-05
3.3673387e-05
7.4059285e-07
7.7238134e-05
2.0548048e-06
0.00011915415
4.4991335e-06
0.00017086291
7.6102326e-06
0.0002149032
6.3407797e-07
0.00021279809
-1.6315886e-05
0.00018052419
-3.3582113e-05
0.00015969367
-4.6275558e-05
0.00016741612
-5.6881682e-05
0.00018344976
-6.6367999e-05
0.00019872718
-7.2770819e-05
0.00021875302
-7.6150995e-05
0.00024205881
-7.6226634e-05
0.00026516635
-7.4228216e-05
0.00028704916
-7.0466296e-05
0.00030540286
-6.5028077e-05
0.00031728528
-5.795563e-05
0.00031869341
-4.8856503e-05
0.00030455454
-3.7935086e-05
0.00027313922
-2.7238123e-05
0.00023453446
-1.8849935e-05
0.00019477025
-1.1633701e-05
0.00014515548
-4.6867782e-06
8.9484171e-05
-4.0926147e-07
3.511265e-05
3.2790401e-05
8.8298564e-07
7.5576148e-05
2.4025788e-06
0.00011598336
5.2255977e-06
0.00016547333
9.8887217e-06
0.00021621621
6.2972185e-06
0.00022442051
-1.0988337e-05
0.00019489903
-3.0690729e-05
0.00017122558
-4.5114023e-05
0.00017767496
-5.6534393e-05
0.0001947531
-6.8185024e-05
0.00020866961
-7.6310431e-05
0.00022778705
-8.1804846e-05
0.00024951566
-8.3607852e-05
0.00027090869
-8.196897e-05
0.00029068985
-7.7868909e-05
0.00030647101
-7.1534444e-05
0.00031515691
-6.2899707e-05
0.00031295277
-5.2214988e-05
0.0002958107
-4.0112661e-05
0.00026415116
-2.8947028e-05
0.00022758768
-2.0291342e-05
0.00018827942
-1.2359101e-05
0.00013857767
-5.0558948e-06
8.5436751e-05
-6.3935846e-07
3.4703389e-05
3.1855377e-05
9.350239e-07
7.3938607e-05
2.5205272e-06
0.00011273288
5.6530586e-06
0.00015939777
1.1301157e-05
0.00021417752
1.1927409e-05
0.00023489246
-4.1747404e-06
0.00021005644
-2.6145747e-05
0.00018309805
-4.2563197e-05
0.00018635239
-5.3791452e-05
0.00020495109
-6.6732385e-05
0.00021737783
-7.6893244e-05
0.00023471333
-8.3236714e-05
0.00025460477
-8.6893948e-05
0.00027349741
-8.6196574e-05
0.00029063198
-8.1911101e-05
0.00030356793
-7.4965832e-05
0.00030898027
-6.5357808e-05
0.00030365376
-5.3600701e-05
0.00028455571
-4.0959998e-05
0.00025394829
-2.9909793e-05
0.00021987671
-2.1236052e-05
0.00018083529
-1.2847208e-05
0.00013162217
-5.4035989e-06
8.1312932e-05
-9.3207557e-07
3.406403e-05
3.0940709e-05
9.1466826e-07
7.2448818e-05
2.4248125e-06
0.00010954739
5.7060208e-06
0.00015314412
1.190671e-05
0.00020866273
1.6815954e-05
0.0002429013
3.9185693e-06
0.00022558586
-1.9704161e-05
0.0001959355
-3.8983201e-05
0.00019353945
-4.9750262e-05
0.00021307837
-6.191873e-05
0.00022523116
-7.4585715e-05
0.0002392935
-8.1473407e-05
0.0002572199
-8.5851848e-05
0.0002728795
-8.6276039e-05
0.00028696073
-8.2525316e-05
0.00029678596
-7.5129124e-05
0.00029907369
-6.5059246e-05
0.0002912334
-5.2937449e-05
0.00027147457
-4.0519568e-05
0.00024309025
-3.0101958e-05
0.00021154373
-2.1576813e-05
0.00017266915
-1.3069917e-05
0.00012452062
-5.7456635e-06
7.7170372e-05
-1.2610391e-06
3.3131954e-05
3.0086111e-05
8.5459757e-07
7.1192465e-05
2.171022e-06
0.00010662614
5.3460604e-06
0.00014694839
1.1901745e-05
0.00020034078
2.0228654e-05
0.00024678761
1.2929647e-05
0.00024075764
-1.1253208e-05
0.00021031158
-3.4080237e-05
0.00020023634
-4.568009e-05
0.00021824278
-5.4914676e-05
0.00023202483
-6.8712397e-05
0.00024208297
-7.7375192e-05
0.00025739559
-8.1649101e-05
0.0002694043
-8.2376645e-05
0.00028006122
-7.9376535e-05
0.00028657751
-7.2316875e-05
0.00028614104
-6.2196476e-05
0.00027661721
-5.0443049e-05
0.00025750837
-3.8971246e-05
0.00023208512
-2.9514435e-05
0.00020270437
-2.1262604e-05
0.00016407052
-1.2978187e-05
0.00011752037
-6.0696611e-06
7.3022081e-05
-1.5973723e-06
3.1870915e-05
2.9288142e-05
7.9796944e-07
7.0188934e-05
1.8581279e-06
0.00010419222
4.6049437e-06
0.00014095544
1.1339007e-05
0.0001905266
2.1715927e-05
0.00024507055
2.1945716e-05
0.00025447454
-7.8725739e-07
0.00022621849
-2.7160114e-05
0.00020807479
-4.191868e-05
0.0002206599
-4.8097211e-05
0.00023671565
-5.9605499e-05
0.00024382637
-7.0455789e-05
0.00025546014
-7.543974e-05
0.00026388696
-7.6131764e-05
0.00027066805
-7.2983475e-05
0.00027395382
-6.675284e-05
0.00027117681
-5.7352642e-05
0.00026100434
-4.6583613e-05
0.00024358621
-3.6520888e-05
0.00022124504
-2.8131164e-05
0.00019348405
-2.029411e-05
0.000155362
-1.2554079e-05
0.00011084219
-6.3000098e-06
6.8864251e-05
-1.9118315e-06
3.0273543e-05
2.8498997e-05
7.8914516e-07
6.9369157e-05
1.6177466e-06
0.0001024289
3.621446e-06
0.00013540698
1.015341e-05
0.00018041327
2.1452343e-05
0.00023751687
2.9269604e-05
0.00026478179
1.1638471e-05
0.00024310677
-1.7675536e-05
0.0002183961
-3.7481431e-05
0.00022204288
-4.3301654e-05
0.00023842529
-4.9806847e-05
0.00024464789
-6.0427028e-05
0.00025196537
-6.6961012e-05
0.00025714227
-6.869505e-05
0.0002598598
-6.5323516e-05
0.00026026538
-5.929504e-05
0.00025551389
-5.1089926e-05
0.00024548734
-4.1835638e-05
0.00023032109
-3.3318496e-05
0.00021067767
-2.5953523e-05
0.00018406794
-1.8715052e-05
0.00014688967
-1.182178e-05
0.00010466165
-6.3735401e-06
6.4737505e-05
-2.1732642e-06
2.8361711e-05
2.7637236e-05
8.6176095e-07
6.8569893e-05
1.5884092e-06
0.00010139711
2.6495401e-06
0.00013068857
8.3398591e-06
0.00017060658
1.99601e-05
0.00022564397
3.3325245e-05
0.00026890017
2.5151223e-05
0.00025979826
-5.0530194e-06
0.00023157375
-3.0853182e-05
0.00022476698
-4.0205536e-05
0.00023765328
-4.2529649e-05
0.00024418359
-4.9342545e-05
0.00024753208
-5.5993746e-05
0.00024960174
-5.9420478e-05
0.00024864484
-5.7480083e-05
0.00024662386
-5.1681993e-05
0.00024049526
-4.4276403e-05
0.00023094727
-3.6549854e-05
0.00021796465
-2.9479195e-05
0.00020041685
-2.3057671e-05
0.00017473707
-1.6622659e-05
0.00013898506
-1.0810446e-05
9.9089528e-05
-6.2496563e-06
6.072063e-05
-2.3566646e-06
2.6188447e-05
2.6607251e-05
1.0299853e-06
6.75722e-05
1.859454e-06
0.00010095613
2.0293867e-06
0.0001272276
6.110507e-06
0.00016144091
1.7505521e-05
0.00021177155
3.3832517e-05
0.00026492668
3.729874e-05
0.00027396059
1.0988888e-05
0.00024727699
-2.0756264e-05
0.00023063173
-3.6717934e-05
0.00023632465
-3.8876902e-05
0.00024240778
-4.0753833e-05
0.00024276527
-4.4575737e-05
0.00024161732
-4.8009323e-05
0.00023759988
-4.837552e-05
0.0002335421
-4.4398317e-05
0.00022681054
-3.7997276e-05
0.00021788093
-3.121007e-05
0.00020661722
-2.5202422e-05
0.0001905713
-1.9633647e-05
0.00016584839
-1.4168986e-05
0.00013191355
-9.5511475e-06
9.4186276e-05
-5.907194e-06
5.69196e-05
-2.4486268e-06
2.3831782e-05
2.5321629e-05
1.285621e-06
6.6171774e-05
2.4304119e-06
0.00010073436
2.0812217e-06
0.00012526113
3.9958515e-06
0.00015344235
1.4109073e-05
0.00019765114
3.1625934e-05
0.00025358357
4.5175622e-05
0.00028213352
2.912581e-05
0.00026424808
-5.9821961e-06
0.00024029422
-3.0418751e-05
0.00023669519
-3.7088472e-05
0.00024017579
-3.6644921e-05
0.00023830016
-3.6288714e-05
0.00023388991
-3.6848327e-05
0.00022713866
-3.7548108e-05
0.00022117718
-3.601061e-05
0.00021438662
-3.1974402e-05
0.00020617821
-2.6294554e-05
0.00019626069
-2.0853539e-05
0.00018133756
-1.5968679e-05
0.00015774028
-1.1525539e-05
0.00012582774
-8.0831779e-06
8.9984719e-05
-5.3495898e-06
5.3454919e-05
-2.4425131e-06
2.1383155e-05
2.3720127e-05
1.6015023e-06
6.4247761e-05
3.2096335e-06
0.0001002303
2.9344715e-06
0.00012459864
2.7437134e-06
0.0001473195
1.0118701e-05
0.00018427825
2.7481961e-05
0.0002376158
4.7593709e-05
0.00028145003
4.5859111e-05
0.00027943562
1.3938266e-05
0.00025348625
-1.9174226e-05
0.00024025008
-3.3973646e-05
0.00023882698
-3.573966e-05
0.00023478984
-3.3134605e-05
0.00022734345
-2.974226e-05
0.00021789136
-2.7601026e-05
0.00020983393
-2.6204852e-05
0.0002029705
-2.4594483e-05
0.00019545754
-2.1253731e-05
0.00018662653
-1.6660402e-05
0.00017282479
-1.2340775e-05
0.00015060735
-8.8357538e-06
0.00012075199
-6.4497896e-06
8.6501822e-05
-4.6002814e-06
5.0435047e-05
-2.3297181e-06
1.8940642e-05
2.1780177e-05
1.9399503e-06
6.1789004e-05
4.0602594e-06
9.9004364e-05
4.43557e-06
0.0001245599
2.973211e-06
0.00014348413
6.5790829e-06
0.00017255579
2.1841163e-05
0.00021988132
4.5216435e-05
0.00027169683
5.734691e-05
0.00028888961
3.6405121e-05
0.00026878721
-1.3626925e-06
0.00024755872
-2.6482864e-05
0.00023946654
-3.4613199e-05
0.00023273484
-3.3684664e-05
0.00022261034
-2.8401492e-05
0.00021048826
-2.2339157e-05
0.0002000294
-1.7796493e-05
0.00019256458
-1.5798941e-05
0.0001856452
-1.4782144e-05
0.00017754192
-1.2169116e-05
0.00016495232
-8.7879329e-06
0.00014442605
-6.1594729e-06
0.0001166086
-4.6923638e-06
8.3744673e-05
-3.6926402e-06
4.7947565e-05
-2.112799e-06
1.6610924e-05
1.9519556e-05
2.2606205e-06
5.8875527e-05
4.8534276e-06
9.6841743e-05
6.2228803e-06
0.00012422996
4.7655133e-06
0.00014159649
4.8608542e-06
0.00016342213
1.5712747e-05
0.00020253693
3.9185555e-05
0.00025520168
6.1711581e-05
0.00028953484
5.6701678e-05
0.0002825233
2.2669024e-05
0.00025834302
-1.2146996e-05
0.00024270648
-2.9722806e-05
0.00023233281
-3.4211166e-05
0.00021975043
-3.082475e-05
0.00020510379
-2.3017022e-05
0.00019205629
-1.4366048e-05
0.00018328359
-8.5154992e-06
0.00017685637
-7.0101028e-06
0.00016934188
-6.58211e-06
0.00015774183
-4.9586177e-06
0.00013905722
-3.4191064e-06
0.00011327803
-2.8289026e-06
8.1712022e-05
-2.6597136e-06
4.6061459e-05
-1.8065345e-06
1.4498125e-05
1.7000498e-05
2.5190583e-06
5.5646043e-05
5.4901045e-06
9.3781927e-05
7.9132431e-06
0.00012284572
7.607122e-06
0.00014056928
5.7927185e-06
0.00015721807
1.106491e-05
0.00018729769
3.0951984e-05
0.00023527925
5.9107993e-05
0.00028075593
7.0490494e-05
0.00029096429
4.826069e-05
0.00027091518
1.0096864e-05
0.00024883842
-1.8278935e-05
0.00023360461
-3.0994603e-05
0.00021845572
-3.2916461e-05
0.00020140772
-2.7128685e-05
0.0001857036
-1.6664338e-05
0.00017501204
-6.0944923e-06
0.00016885718
-5.1631733e-07
0.00016245528
-1.2349638e-07
0.00015162446
-4.6474924e-07
0.00013453131
-4.3270649e-07
0.00011069472
-8.3579876e-07
8.0410711e-05
-1.5275909e-06
4.4827511e-05
-1.4257654e-06
1.269159e-05
1.4348177e-05
2.6523212e-06
5.2279862e-05
5.8852395e-06
9.0030509e-05
9.241523e-06
0.0001200319
1.0727062e-05
0.00013906808
9.1083225e-06
0.00015321381
9.7969796e-06
0.0001753503
2.3012299e-05
0.00021516238
5.1068852e-05
0.00026435896
7.5504964e-05
0.00029125976
7.0195028e-05
0.00028207438
3.7101496e-05
0.00025779811
1.1371716e-06
0.00023673601
-2.1410334e-05
0.00021834072
-3.0879599e-05
0.00019888725
-3.0395988e-05
0.00018050736
-2.1932448e-05
0.00016742318
-9.0754839e-06
0.00016099914
1.7635497e-06
0.00015654697
5.3919884e-06
0.00014708733
4.4136376e-06
0.00013125128
2.8152825e-06
0.00010904433
1.2176838e-06
7.9888172e-05
-3.1325988e-07
4.4285169e-05
-9.8524935e-07
1.1265825e-05
1.1760592e-05
2.587585e-06
4.8993866e-05
5.9383168e-06
8.5859547e-05
1.0056202e-05
0.00011580083
1.3472592e-05
0.00013608334
1.37118e-05
0.00014992108
1.240105e-05
0.00016679307
1.8354209e-05
0.00019753422
4.0640454e-05
0.00024369663
7.1731187e-05
0.00028270992
8.4054804e-05
0.00028850495
6.3764456e-05
0.00026787696
2.7022641e-05
0.00024226598
-4.3928062e-06
0.00021951732
-2.2586933e-05
0.00019730872
-2.930107e-05
0.00017620493
-2.6093555e-05
0.00016034925
-1.4858517e-05
0.00015277507
-8.5141513e-07
0.00015066389
7.6466329e-06
0.00014404866
8.4306552e-06
0.00012956631
6.0986079e-06
0.00010851686
3.3427555e-06
8.0226132e-05
8.7972313e-07
4.4472579e-05
-5.0067004e-07
1.0280576e-05
9.4968325e-06
2.2637593e-06
4.6053384e-05
5.5280673e-06
8.1568854e-05
1.022901e-05
0.00011042022
1.5436809e-05
0.00013118301
1.8372925e-05
0.00014588459
1.7748289e-05
0.00016056384
1.8630284e-05
0.00018393213
3.1956299e-05
0.00022271011
6.1626969e-05
0.00026682361
8.7617497e-05
0.00028789859
8.4661168e-05
0.00027663337
5.5008048e-05
0.0002499171
1.9371527e-05
0.00022247653
-7.3520175e-06
0.00019682313
-2.2101337e-05
0.00017290436
-2.6000498e-05
0.00015402152
-1.9765821e-05
0.00014426219
-6.3456294e-06
0.00014380555
6.00692e-06
0.00014147219
1.0223108e-05
0.00012936117
8.6358005e-06
0.00010933678
5.2786916e-06
8.152754e-05
2.0413478e-06
4.5348369e-05
3.9331146e-09
9.7799055e-06
7.8605038e-06
1.6363288e-06
4.378696e-05
4.5301829e-06
7.7514631e-05
9.5822902e-06
0.00010431312
1.6336114e-05
0.0001244777
2.2142114e-05
0.00014026377
2.3993749e-05
0.00015513602
2.3176106e-05
0.00017431663
2.8245782e-05
0.00020479266
4.9873752e-05
0.00024693213
8.1518452e-05
0.00027964417
9.5871916e-05
0.00028143541
7.9859134e-05
0.00025852853
4.6396614e-05
0.00022797769
1.3870362e-05
0.00019807622
-8.6051134e-06
0.00017103458
-2.0231559e-05
0.00014898834
-2.096732e-05
0.00013615528
-1.1658914e-05
0.00013578988
1.6700405e-06
0.00013813998
9.3391308e-06
0.00012989989
9.6843789e-06
0.00011135237
6.6202118e-06
8.3788252e-05
3.0179794e-06
4.6949507e-05
4.4020949e-07
9.7838385e-06
7.1651217e-06
6.9538204e-07
4.2557448e-05
2.8658405e-06
7.4143718e-05
7.9010955e-06
9.8047501e-05
1.5847908e-05
0.00011649842
2.4315398e-05
0.00013297975
2.9426139e-05
0.00014936781
2.9761961e-05
0.00016749696
2.9995785e-05
0.00019169444
4.1343999e-05
0.00022725868
6.9547196e-05
0.00026514408
9.6018543e-05
0.00028046864
9.6838685e-05
0.00026612048
7.2267189e-05
0.00023565146
3.8722847e-05
0.0002020019
9.9446851e-06
0.00017124775
-8.8182836e-06
0.00014590796
-1.7151183e-05
0.00012943757
-1.4249606e-05
0.00012722479
-3.0938165e-06
0.00013335763
6.4523876e-06
0.00013021122
9.0278057e-06
0.00011400642
7.0303228e-06
8.6781605e-05
3.6268591e-06
4.9147681e-05
8.1980596e-07
1.0224048e-05
7.6216954e-06
-4.5657365e-07
4.2692724e-05
5.6010636e-07
7.1982303e-05
5.0272559e-06
9.2359335e-05
1.3589262e-05
0.0001080844
2.426193e-05
0.00012456812
3.2727022e-05
0.00014288125
3.5912696e-05
0.0001621229
3.5136019e-05
0.0001832801
3.8410125e-05
0.0002113884
5.7214282e-05
0.00024767448
8.701679e-05
0.00027341733
0.00010306985
0.00027066896
9.2290199e-05
0.00024439426
6.3524389e-05
0.00020883888
3.1885868e-05
0.00017429569
6.8967489e-06
0.00014542326
-8.333582e-06
0.00012500886
-1.2722481e-05
0.00011938412
-6.4089415e-06
0.00012738172
2.8820938e-06
0.00012956858
7.0950272e-06
0.0001165759
6.4583237e-06
9.0073407e-05
3.7385203e-06
5.170267e-05
1.0718703e-06
1.1043854e-05
9.3048865e-06
-1.6831912e-06
4.4500005e-05
-2.2638548e-06
7.1542796e-05
9.9961342e-07
8.8126684e-05
9.2599067e-06