/*--------------------------------*- C++ -*----------------------------------*\
| =========                 |                                                 |
| \\      /  F ield         | OpenFOAM: The Open Source CFD Toolbox           |
|  \\    /   O peration     | Version:  2206                                  |
|   \\  /    A nd           | Website:  www.openfoam.com                      |
|    \\/     M anipulation  |                                                 |
\*---------------------------------------------------------------------------*/
FoamFile
{
    version     2.0;
    format      ascii;
    arch        "LSB;label=32;scalar=64";
    class       volVectorField;
    location    "4";
    object      U;
}
// * * * * * * * * * * * * * * * * * * * * * * * * * * * * * * * * * * * * * //

dimensions      [0 1 -1 0 0 0 0];

internalField   nonuniform List<vector> 
2663
(
(0.12245169 0.012726749 0)
(0.10185031 0.012115925 0)
(0.46279627 0.073920482 0)
(0.082650188 0.011402289 0)
(0.42829865 0.067747748 0)
(0.82723975 0.15942188 0)
(0.065029961 0.010559121 0)
(0.39659276 0.061209155 0)
(0.78310745 0.14609849 0)
(1.1239508 0.25863026 0)
(0.04915497 0.0095866602 0)
(0.36809223 0.054363251 0)
(0.74138371 0.13130169 0)
(1.0781923 0.24352723 0)
(1.3158407 0.34447987 0)
(0.035175158 0.0084967209 0)
(0.34307811 0.047270063 0)
(0.70277066 0.115566 0)
(1.0324978 0.22442206 0)
(1.2698239 0.33110995 0)
(1.4937903 0.44963616 0)
(0.023222613 0.0073011202 0)
(0.32169887 0.04000715 0)
(0.66791598 0.099348489 0)
(0.98766151 0.20213728 0)
(1.2240095 0.31277839 0)
(1.4314478 0.43042948 0)
(1.6996439 0.60126273 0)
(0.013421679 0.0060030331 0)
(0.30401642 0.032633881 0)
(0.63726547 0.083034817 0)
(0.94463798 0.17764386 0)
(1.1783072 0.28977957 0)
(1.371987 0.40689388 0)
(1.6244082 0.57799418 0)
(1.8170743 0.74143141 0)
(0.0059033133 0.0045934066 0)
(0.29005103 0.025157687 0)
(0.61104741 0.06689272 0)
(0.90436506 0.15194369 0)
(1.1330044 0.26271729 0)
(1.3154885 0.37964783 0)
(1.5498707 0.54614458 0)
(1.7553088 0.72764556 0)
(1.7579303 0.82723922 0)
(0.00079119513 0.0030584759 0)
(0.27982164 0.01753705 0)
(0.58933875 0.051012994 0)
(0.86763792 0.12587203 0)
(1.088789 0.23245481 0)
(1.2620723 0.34900881 0)
(1.4776797 0.50800414 0)
(1.6870629 0.69962276 0)
(1.7282235 0.83458379 0)
(1.5499212 0.83010486 0)
(-0.0015745592 0.0014017703 0)
(0.27338733 0.0097165593 0)
(0.57216561 0.035302114 0)
(0.83507949 0.099912893 0)
(1.0466446 0.19993532 0)
(1.2122687 0.31492883 0)
(1.4095253 0.46443642 0)
(1.61504 0.65829151 0)
(1.6892822 0.82384576 0)
(1.5537435 0.85749912 0)
(1.2184871 0.78947158 0)
(-0.0011481603 -0.00045139062 0)
(0.27086628 0.0016888208 0)
(0.55958346 0.019550885 0)
(0.80719576 0.074120691 0)
(1.0076498 0.16587302 0)
(1.1664697 0.27731559 0)
(1.3462122 0.41620399 0)
(1.5417908 0.60699137 0)
(1.6425905 0.79554143 0)
(1.5470417 0.86487398 0)
(1.2478257 0.83779429 0)
(0.86039113 0.69323584 0)
(0.0020404636 -0.0024200272 0)
(0.27231679 -0.0066144511 0)
(0.55172161 0.00354365 0)
(0.78445294 0.048179739 0)
(0.9728404 0.13051756 0)
(1.124627 0.23632145 0)
(1.2874546 0.36565941 0)
(1.4695636 0.55178917 0)
(1.5894091 0.75153051 0)
(1.5295388 0.85185435 0)
(1.2680887 0.86733035 0)
(0.91673297 0.75637376 0)
(0.50833514 0.54423335 0)
(0.0081316308 -0.004427022 0)
(0.27789703 -0.014926438 0)
(0.54895552 -0.012823085 0)
(0.76734601 0.021626436 0)
(0.9432034 0.093665804 0)
(1.0870061 0.19214467 0)
(1.2340635 0.3140905 0)
(1.4020561 0.49379664 0)
(1.5322625 0.6912533 0)
(1.5015267 0.81923084 0)
(1.2790015 0.87736697 0)
(0.96643373 0.80039041 0)
(0.58078418 0.6197587 0)
(0.43090343 0.45423013 0)
(0.19844601 0.40498739 0)
(0.017041504 -0.0063471731 0)
(0.28767112 -0.022942838 0)
(0.55176316 -0.029215373 0)
(0.75661802 -0.0058477093 0)
(0.91969836 0.054869643 0)
(1.0545165 0.14478595 0)
(1.1881948 0.25987471 0)
(1.3429282 0.42755697 0)
(1.4742667 0.61423724 0)
(1.4641028 0.77038257 0)
(1.2807839 0.86792852 0)
(1.0087297 0.82332764 0)
(0.64644176 0.6790322 0)
(0.26764912 0.49559125 0)
(0.12734842 0.30355729 0)
(0.1019994 0.27464408 0)
(0.028564571 -0.0080446369 0)
(0.30144929 -0.030231369 0)
(0.56033217 -0.045015438 0)
(0.75303249 -0.034090281 0)
(0.90326202 0.013835221 0)
(1.0281358 0.093917817 0)
(1.1503553 0.20125479 0)
(1.2908543 0.35271888 0)
(1.4148186 0.53073009 0)
(1.417842 0.71341838 0)
(1.2742623 0.83947619 0)
(1.0427316 0.82414853 0)
(0.70322529 0.72144997 0)
(0.33302505 0.57386669 0)
(0.15918232 0.36743016 0)
(0.049195236 0.17401425 0)
(0.30345458 0.16611181 0)
(0.042326735 -0.0093966707 0)
(0.31874938 -0.036335061 0)
(0.57461857 -0.059238567 0)
(0.75696668 -0.06200261 0)
(0.89493227 -0.029011757 0)
(1.0087175 0.039174397 0)
(1.1189119 0.13791556 0)
(1.2414877 0.27694514 0)
(1.3518123 0.45504837 0)
(1.3646173 0.65338347 0)
(1.2612544 0.79107373 0)
(1.0671188 0.80353838 0)
(0.74870872 0.74813272 0)
(0.39277158 0.63913618 0)
(0.21957256 0.45011065 0)
(0.34327807 0.24364985 0)
(0.2746374 0.083594285 0)
(0.73151916 0.112441 0)
(0.057833612 -0.010329538 0)
(0.33877284 -0.040886374 0)
(0.59406217 -0.070759335 0)
(0.76830797 -0.087670967 0)
(0.8952196 -0.071632429 0)
(0.99705802 -0.018351077 0)
(1.0931315 0.07000788 0)
(1.1954944 0.20268335 0)
(1.2900051 0.38272395 0)
(1.3116557 0.58080073 0)
(1.2444039 0.72000115 0)
(1.0794649 0.76554351 0)
(0.78019412 0.76236116 0)
(0.44548977 0.6915281 0)
(0.28230839 0.52082234 0)
(0.3933167 0.31339966 0)
(0.75026281 0.16191703 0)
(0.7269398 0.060866501 0)
(1.2175714 0.1128139 0)
(0.074510392 -0.010843867 0)
(0.36046307 -0.043713232 0)
(0.61755042 -0.078641464 0)
(0.78609758 -0.10885296 0)
(0.90325694 -0.11052294 0)
(0.99274657 -0.07460845 0)
(1.0732092 0.00022484709 0)
(1.1572703 0.12450388 0)
(1.2369815 0.29675692 0)
(1.2650234 0.48518758 0)
(1.2224019 0.6311394 0)
(1.0749883 0.7203522 0)
(0.79517302 0.76937168 0)
(0.49063666 0.731674 0)
(0.34703177 0.57803886 0)
(0.45287683 0.37278082 0)
(0.7829111 0.20654292 0)
(1.2245488 0.13422072 0)
(1.2206358 0.088129481 0)
(1.5345403 0.11063445 0)
(0.091754148 -0.010991198 0)
(0.38267529 -0.044871649 0)
(0.64362233 -0.082403901 0)
(0.80870651 -0.12376713 0)
(0.91676802 -0.1418591 0)
(0.99279664 -0.12264178 0)
(1.057154 -0.063056166 0)
(1.1235516 0.045967705 0)
(1.1874332 0.20396952 0)
(1.2157443 0.38496403 0)
(1.1840666 0.54862904 0)
(1.0467921 0.68424893 0)
(0.7926859 0.7746455 0)
(0.52912192 0.76002656 0)
(0.41410608 0.62035653 0)
(0.52150435 0.41942115 0)
(0.82889145 0.24357884 0)
(1.2426553 0.15117993 0)
(1.5486357 0.11768117 0)
(1.525124 0.098148064 0)
(1.57171 0.075956207 0)
(0.10901368 -0.010834746 0)
(0.40437477 -0.04459426 0)
(0.67074049 -0.082105949 0)
(0.83428679 -0.13168508 0)
(0.93274434 -0.16300951 0)
(0.99247214 -0.15666327 0)
(1.0376276 -0.1091942 0)
(1.0792812 -0.012058756 0)
(1.1218287 0.14105524 0)
(1.1433367 0.3221564 0)
(1.1152733 0.50397556 0)
(0.991707 0.67025456 0)
(0.77573169 0.78040057 0)
(0.56391366 0.7758909 0)
(0.4847578 0.64618656 0)
(0.59897673 0.45112621 0)
(0.88742886 0.27040561 0)
(1.272341 0.16213203 0)
(1.5679825 0.11870999 0)
(1.5931711 0.077143367 0)
(1.5520407 0.069318717 0)
(1.4246955 0.028695725 0)
(0.1258388 -0.010444107 0)
(0.42471218 -0.043186235 0)
(0.69749745 -0.078267692 0)
(0.86125081 -0.13297562 0)
(0.94866524 -0.17357179 0)
(0.98765175 -0.17514852 0)
(1.0044791 -0.13153985 0)
(1.0105143 -0.029483103 0)
(1.0261248 0.13289982 0)
(1.0393115 0.31666858 0)
(1.0169623 0.50435282 0)
(0.91827193 0.67527947 0)
(0.75297595 0.78237701 0)
(0.60011626 0.77660863 0)
(0.56094124 0.65352764 0)
(0.68529035 0.4657789 0)
(0.95758247 0.28462807 0)
(1.3133977 0.16530479 0)
(1.5929832 0.11308556 0)
(1.6161783 0.072409842 0)
(1.4437308 0.027748626 0)
(1.406595 0.025589326 0)
(1.2380087 -0.0020313693 0)
(0.14187341 -0.0098867889 0)
(0.443033 -0.040939372 0)
(0.72272155 -0.071677342 0)
(0.88859141 -0.12870071 0)
(0.96344354 -0.17531294 0)
(0.97652047 -0.18081589 0)
(0.95350438 -0.13172692 0)
(0.91824922 -0.010273161 0)
(0.90877296 0.16149087 0)
(0.91969838 0.34273133 0)
(0.91002884 0.52285909 0)
(0.84571423 0.67947371 0)
(0.73690398 0.77024975 0)
(0.64398393 0.75751576 0)
(0.64490543 0.6398533 0)
(0.78044948 0.46132967 0)
(1.038212 0.28413566 0)
(1.365092 0.15889809 0)
(1.62354 0.10018101 0)
(1.6405048 0.061438765 0)
(1.4632337 0.022492199 0)
(1.2489396 -0.0038555809 0)
(1.2278999 -0.0027110425 0)
(1.0239233 -0.014036532 0)
(0.15683346 -0.0092197422 0)
(0.45888829 -0.038072498 0)
(0.74548711 -0.063167718 0)
(0.91591762 -0.12012877 0)
(0.97760421 -0.17106472 0)
(0.96030272 -0.17867105 0)
(0.89103728 -0.11981297 0)
(0.81823196 0.016975113 0)
(0.79486354 0.18479124 0)
(0.81172315 0.35601769 0)
(0.82042964 0.52181218 0)
(0.79350827 0.65874149 0)
(0.73889751 0.73183466 0)
(0.70089168 0.7130786 0)
(0.73848419 0.60238569 0)
(0.88410885 0.43594491 0)
(1.1279505 0.26713308 0)
(1.4260438 0.14129475 0)
(1.6589374 0.079381087 0)
(1.6656831 0.044078043 0)
(1.4826178 0.012716561 0)
(1.2599819 -0.008364187 0)
(1.0271589 -0.016519087 0)
(1.0207729 -0.012899255 0)
(0.69333045 -0.017330921 0)
(0.17049098 -0.0084850743 0)
(0.47201928 -0.034698478 0)
(0.76504759 -0.053500788 0)
(0.94325124 -0.10836056 0)
(0.9928166 -0.16341025 0)
(0.9432091 -0.1739751 0)
(0.82987645 -0.11002225 0)
(0.73044442 0.023142129 0)
(0.70655851 0.17324713 0)
(0.73476835 0.32824932 0)
(0.76395869 0.47749066 0)
(0.77228789 0.59738761 0)
(0.76488736 0.65840362 0)
(0.77358497 0.6388058 0)
(0.84207309 0.53897922 0)
(0.99534245 0.38828314 0)
(1.2251283 0.23232955 0)
(1.4942455 0.1111796 0)
(1.6978151 0.050211545 0)
(1.6911873 0.02038412 0)
(1.5009254 -0.0016663628 0)
(1.2704036 -0.015694315 0)
(1.029896 -0.020439166 0)
(0.68907523 -0.017222378 0)
(0.69650533 -0.017467482 0)
(0.23082428 0.001658241 0)
(0.18265314 -0.0077064551 0)
(0.48234017 -0.030825724 0)
(0.78073465 -0.043396769 0)
(0.97068945 -0.094087041 0)
(1.011171 -0.15390197 0)
(0.93106942 -0.17080309 0)
(0.78164625 -0.11281382 0)
(0.66865841 -0.0024794763 0)
(0.65294441 0.12143969 0)
(0.6943965 0.25528972 0)
(0.74331601 0.3863851 0)
(0.78262316 0.49271078 0)
(0.81445864 0.54797609 0)
(0.86124088 0.5334971 0)
(0.95445053 0.44885876 0)
(1.1123049 0.31796575 0)
(1.3274043 0.17910509 0)
(1.5669432 0.068098226 0)
(1.7392544 0.012597536 0)
(1.716495 -0.0093844079 0)
(1.5170092 -0.020537588 0)
(1.2795261 -0.025851786 0)
(1.0314246 -0.025783441 0)
(0.68329015 -0.017142581 0)
(0.22741058 0.0042094953 0)
(0.23487916 -0.00093387747 0)
(0.19312786 -0.0068811386 0)
(0.48991899 -0.026402518 0)
(0.79188294 -0.03357456 0)
(0.99804954 -0.077530144 0)
(1.0344712 -0.14290465 0)
(0.92916464 -0.17086388 0)
(0.75317181 -0.1310437 0)
(0.63656286 -0.054461431 0)
(0.63284645 0.039195124 0)
(0.68713547 0.14770917 0)
(0.75344081 0.25836863 0)
(0.8190057 0.35229623 0)
(0.88287114 0.40529019 0)
(0.96020389 0.39983265 0)
(1.0725418 0.33370066 0)
(1.2323091 0.22596066 0)
(1.43196 0.10825561 0)
(1.641909 0.012501025 0)
(1.782515 -0.033347067 0)
(1.7398041 -0.044672705 0)
(1.5297376 -0.043633592 0)
(1.2864836 -0.038646993 0)
(1.030946 -0.032472229 0)
(0.67556866 -0.017015446 0)
(0.22462977 0.0064868973 0)
(0.20170123 -0.0059730142 0)
(0.49492352 -0.021397248 0)
(0.79786853 -0.024628376 0)
(1.0245452 -0.058682786 0)
(1.0637672 -0.12977511 0)
(0.9407463 -0.1732358 0)
(0.74689934 -0.16045904 0)
(0.63201536 -0.12131623 0)
(0.64076121 -0.060176776 0)
(0.705646 0.020260829 0)
(0.78696034 0.10782942 0)
(0.87394288 0.18841473 0)
(0.96375866 0.23942583 0)
(1.0653291 0.24370154 0)
(1.1921622 0.19765304 0)
(1.3517542 0.11501797 0)
(1.5357911 0.021629652 0)
(1.7168329 -0.054738234 0)
(1.8245634 -0.086702901 0)
(1.7586833 -0.084899534 0)
(1.5381021 -0.070485575 0)
(1.2902801 -0.053709491 0)
(1.0275845 -0.04033745 0)
(0.66561662 -0.016710637 0)
(0.22241163 0.0083525464 0)
(0.20816096 -0.0049350531 0)
(0.49750528 -0.015903623 0)
(0.79825379 -0.016763502 0)
(1.0486206 -0.037791845 0)
(1.0991495 -0.11329659 0)
(0.9668351 -0.17520856 0)
(0.76209973 -0.19384387 0)
(0.65129956 -0.19174583 0)
(0.67111912 -0.16339967 0)
(0.74418913 -0.11369667 0)
(0.83661694 -0.051768066 0)
(0.93999473 0.013711593 0)
(1.0510209 0.06122365 0)
(1.1718535 0.073562741 0)
(1.3097033 0.046995404 0)
(1.4673993 -0.010349168 0)
(1.6355216 -0.077813064 0)
(1.787802 -0.1315763 0)
(1.8616908 -0.14623602 0)
(1.7714493 -0.12922028 0)
(1.5411348 -0.099943647 0)
(1.2899989 -0.070549188 0)
(1.0203996 -0.049051026 0)
(0.65328127 -0.016113603 0)
(0.22065828 0.0096969974 0)
(0.2123402 -0.0037340747 0)
(0.49772494 -0.010239972 0)
(0.7929749 -0.0096273484 0)
(1.0680995 -0.015750991 0)
(1.1397521 -0.092292714 0)
(1.0067583 -0.17351616 0)
(0.79616721 -0.22433237 0)
(0.68939535 -0.25680842 0)
(0.71880345 -0.2603395 0)
(0.79847589 -0.24278621 0)
(0.89740659 -0.20803405 0)
(1.012911 -0.16021352 0)
(1.1402106 -0.11928955 0)
(1.2757265 -0.1011934 0)
(1.4212309 -0.11137633 0)
(1.5753103 -0.14446291 0)
(1.726864 -0.18573896 0)
(1.8508613 -0.21502637 0)
(1.8913288 -0.20994074 0)
(1.7764775 -0.17569129 0)
(1.537836 -0.13057813 0)
(1.2848654 -0.088611079 0)
(1.0084829 -0.058183778 0)
(0.6385304 -0.015212187 0)
(0.21927759 0.010423832 0)
(0.21415188 -0.0023758533 0)
(0.49557248 -0.0046430792 0)
(0.78287562 -0.0024142339 0)
(1.080701 0.0058563898 0)
(1.1837383 -0.066075007 0)
(1.0588387 -0.16515995 0)
(0.84582499 -0.2467227 0)
(0.74130959 -0.31027727 0)
(0.77876612 -0.34344964 0)
(0.86364827 -0.35806364 0)
(0.96538849 -0.35206384 0)
(1.0898195 -0.32318159 0)
(1.2279641 -0.29291437 0)
(1.3732921 -0.27203173 0)
(1.5224165 -0.26968019 0)
(1.6709849 -0.28127775 0)
(1.8058218 -0.29710275 0)
(1.9024238 -0.30128848 0)
(1.910624 -0.27484333 0)
(1.7720237 -0.22202948 0)
(1.5273532 -0.16080244 0)
(1.2742953 -0.10724461 0)
(0.99107703 -0.067247489 0)
(0.62141387 -0.014196928 0)
(0.2181798 0.010471455 0)
(0.21374445 -0.00091201944 0)
(0.49103711 0.00055147969 0)
(0.76922094 0.005302694 0)
(1.0838994 0.025140055 0)
(1.2282424 -0.03447174 0)
(1.120664 -0.14786056 0)
(0.90783762 -0.25747872 0)
(0.80260171 -0.34840962 0)
(0.84628105 -0.40754121 0)
(0.9355931 -0.45235943 0)
(1.037003 -0.47632429 0)
(1.1663749 -0.46802239 0)
(1.311154 -0.4509084 0)
(1.4611549 -0.43215828 0)
(1.6103461 -0.41987129 0)
(1.7512448 -0.41354965 0)
(1.8691619 -0.40595902 0)
(1.9390498 -0.38551727 0)
(1.9165908 -0.33732223 0)
(1.756612 -0.26561876 0)
(1.509123 -0.18892209 0)
(1.2578111 -0.12567004 0)
(0.96773603 -0.075672753 0)
(0.60204791 -0.013490694 0)
(0.21724626 0.0098391137 0)
(0.211416 0.00045392335 0)
(0.48419713 0.0050915537 0)
(0.75308859 0.013313897 0)
(1.0757077 0.040336734 0)
(1.2692354 0.0022440988 0)
(1.1892159 -0.12021186 0)
(0.97937314 -0.25439962 0)
(0.86940958 -0.36946203 0)
(0.91714923 -0.44969216 0)
(1.0101754 -0.52103981 0)
(1.1097117 -0.57337086 0)
(1.2389883 -0.5894771 0)
(1.3869499 -0.58537221 0)
(1.53647 -0.57387577 0)
(1.6824532 -0.55519231 0)
(1.8133767 -0.53349585 0)
(1.9135179 -0.50592528 0)
(1.9576716 -0.46239672 0)
(1.9067019 -0.39323355 0)
(1.7293596 -0.30357038 0)
(1.4830042 -0.21337699 0)
(1.2349691 -0.14300613 0)
(0.93851123 -0.082770085 0)
(0.58063533 -0.01363162 0)
(0.2162883 0.0085991067 0)
(0.20751946 0.0015680247 0)
(0.47543524 0.0086938656 0)
(0.73534847 0.02060003 0)
(1.055832 0.050919072 0)
(1.3013283 0.042769665 0)
(1.2612627 -0.081671635 0)
(1.0581948 -0.23671467 0)
(0.93862217 -0.37310594 0)
(0.98764557 -0.46897905 0)
(1.0836994 -0.56219167 0)
(1.180322 -0.63829193 0)
(1.3055991 -0.68047759 0)
(1.4521264 -0.69234132 0)
(1.5970096 -0.68851169 0)
(1.7359492 -0.66828851 0)
(1.8547505 -0.63515002 0)
(1.9361896 -0.59019306 0)
(1.9556994 -0.52647236 0)
(1.8794206 -0.43827011 0)
(1.6901222 -0.33305786 0)
(1.4494513 -0.23303546 0)
(1.2054004 -0.15843628 0)
(0.90400407 -0.08785529 0)
(0.55750759 -0.015057175 0)
(0.21501289 0.0068938428 0)
(0.20252674 0.0023454319 0)
(0.46553823 0.011149613 0)
(0.71644181 0.025953349 0)
(1.0260803 0.057920946 0)
(1.3187824 0.08278652 0)
(1.3337115 -0.032983422 0)
(1.143041 -0.20451286 0)
(1.0083518 -0.36060554 0)
(1.0538167 -0.46672696 0)
(1.1542021 -0.57465534 0)
(1.244527 -0.67217262 0)
(1.3648184 -0.73300988 0)
(1.5037714 -0.76780889 0)
(1.6407125 -0.77118011 0)
(1.7685833 -0.75115785 0)
(1.8728898 -0.71235088 0)
(1.9352797 -0.65295037 0)
(1.931568 -0.57256991 0)
(1.8343284 -0.46847591 0)
(1.6397273 -0.35173272 0)
(1.4095365 -0.24743131 0)
(1.1689579 -0.17116881 0)
(0.86524624 -0.09061366 0)
(0.53314042 -0.017926898 0)
(0.21301828 0.0049138691 0)
(0.19698774 0.0027594497 0)
(0.45540373 0.012410043 0)
(0.69677662 0.028642244 0)
(0.990276 0.062806017 0)
(1.3169584 0.11465287 0)
(1.4025604 0.024201576 0)
(1.2333401 -0.15766712 0)
(1.0788667 -0.33432244 0)
(1.1116406 -0.4474687 0)
(1.2201841 -0.55765538 0)
(1.3001838 -0.67813635 0)
(1.4135072 -0.74764928 0)
(1.5408465 -0.80356312 0)
(1.6655222 -0.8189277 0)
(1.7788075 -0.80050523 0)
(1.8666391 -0.75758555 0)
(1.9093182 -0.6894089 0)
(1.8850949 -0.59635095 0)
(1.7723891 -0.48078127 0)
(1.5803337 -0.35846341 0)
(1.3645495 -0.25673136 0)
(1.1260697 -0.18004086 0)
(0.82351283 -0.091364186 0)
(0.50807885 -0.022056045 0)
(0.20984142 0.0028497108 0)
(0.19139332 0.002821887 0)
(0.44588246 0.012606067 0)
(0.67705167 0.028607537 0)
(0.95225345 0.065689899 0)
(1.2932347 0.13206794 0)
(1.4612266 0.087749511 0)
(1.3278204 -0.096260061 0)
(1.1531208 -0.29530458 0)
(1.1591681 -0.41846906 0)
(1.2773212 -0.51548299 0)
(1.3495374 -0.65381784 0)
(1.4478588 -0.73490778 0)
(1.5634948 -0.79683775 0)
(1.6702855 -0.82655529 0)
(1.7662467 -0.81486779 0)
(1.8360872 -0.76855647 0)
(1.8589335 -0.69541773 0)
(1.8175717 -0.59505923 0)
(1.6967199 -0.47412639 0)
(1.5152691 -0.3542736 0)
(1.315507 -0.26112902 0)
(1.077937 -0.18341266 0)
(0.7802023 -0.09087502 0)
(0.48276925 -0.026970957 0)
(0.20505063 0.00083264377 0)
(0.18607825 0.0025999267 0)
(0.43760972 0.012049473 0)
(0.65831992 0.026241483 0)
(0.91418802 0.065230547 0)
(1.2492553 0.13588595 0)
(1.5002925 0.15212173 0)
(1.4227935 -0.021709532 0)
(1.2355682 -0.24115093 0)
(1.1994625 -0.3853449 0)
(1.3186488 -0.46174617 0)
(1.3947922 -0.59540931 0)
(1.4684882 -0.70029277 0)
(1.5714769 -0.75866113 0)
(1.6560449 -0.79511815 0)
(1.7325182 -0.78974919 0)
(1.7825661 -0.74762919 0)
(1.7875974 -0.67136503 0)
(1.7331625 -0.56905703 0)
(1.6126822 -0.4508741 0)
(1.4480673 -0.34192516 0)
(1.2630811 -0.25989029 0)
(1.0262733 -0.17997032 0)
(0.73683852 -0.089834962 0)
(0.45740966 -0.0320176 0)
(0.19833814 -0.0010951414 0)
(0.1811341 0.0022309415 0)
(0.43090276 0.011210302 0)
(0.64189407 0.02229217 0)
(0.87696605 0.060251673 0)
(1.192073 0.13211229 0)
(1.5084986 0.20415909 0)
(1.5128831 0.064620843 0)
(1.3284202 -0.16904775 0)
(1.2412843 -0.34631807 0)
(1.3405355 -0.41363156 0)
(1.4318521 -0.51215443 0)
(1.4810394 -0.6373846 0)
(1.5652096 -0.70109523 0)
(1.6269242 -0.73778392 0)
(1.6810116 -0.72983865 0)
(1.7107427 -0.69518642 0)
(1.7004941 -0.62242736 0)
(1.639029 -0.52355793 0)
(1.5265374 -0.41620539 0)
(1.3813167 -0.32368064 0)
(1.2078751 -0.25123879 0)
(0.97300595 -0.16987291 0)
(0.69490333 -0.08837158 0)
(0.43200379 -0.0364777 0)
(0.18956775 -0.0029507016 0)
(0.17637998 0.0019058126 0)
(0.4255947 0.010624997 0)
(0.62908882 0.017912562 0)
(0.84156817 0.050908315 0)
(1.1302827 0.1244514 0)
(1.4787904 0.22988353 0)
(1.5900035 0.15999144 0)
(1.4296419 -0.078247416 0)
(1.2951769 -0.29322306 0)
(1.3487712 -0.37839555 0)
(1.452413 -0.42964365 0)
(1.489479 -0.54504358 0)
(1.5475663 -0.62338831 0)
(1.588645 -0.66525606 0)
(1.6174109 -0.65453713 0)
(1.6284289 -0.61859563 0)
(1.6049519 -0.55438036 0)
(1.5426362 -0.46630483 0)
(1.4432098 -0.37514665 0)
(1.3161327 -0.29972887 0)
(1.1507702 -0.23374831 0)
(0.92021652 -0.15481658 0)
(0.65559832 -0.085974193 0)
(0.40665129 -0.039722197 0)
(0.17878622 -0.004732387 0)
(0.17139967 0.0018148666 0)
(0.42092363 0.010768104 0)
(0.62074196 0.014599727 0)
(0.80990377 0.038670117 0)
(1.0692473 0.11200957 0)
(1.4159622 0.22855855 0)
(1.6387027 0.2513197 0)
(1.5345869 0.032231687 0)
(1.3669037 -0.21849592 0)
(1.3577153 -0.34685221 0)
(1.4534533 -0.37200693 0)
(1.4917576 -0.44402491 0)
(1.5227731 -0.52365797 0)
(1.5450948 -0.57476275 0)
(1.5491928 -0.57564359 0)
(1.543668 -0.53695007 0)
(1.5098098 -0.4777143 0)
(1.4500735 -0.40350374 0)
(1.3650201 -0.33038565 0)
(1.2526639 -0.26918575 0)
(1.0932076 -0.20795489 0)
(0.87002132 -0.13689931 0)
(0.61976428 -0.081894681 0)
(0.38171879 -0.041324422 0)
(0.16622973 -0.0063652873 0)
(0.16564362 0.0020863696 0)
(0.41563926 0.011931747 0)
(0.616656 0.013876467 0)
(0.78461361 0.02615463 0)
(1.0111046 0.093087865 0)
(1.334369 0.21118341 0)
(1.6404288 0.3147728 0)
(1.6337958 0.16040962 0)
(1.4561261 -0.11683523 0)
(1.3819728 -0.30196626 0)
(1.4432324 -0.34163567 0)
(1.4844489 -0.36573499 0)
(1.4942763 -0.418779 0)
(1.4976754 -0.4658296 0)
(1.481563 -0.48517922 0)
(1.4620776 -0.4591034 0)
(1.4217827 -0.40654656 0)
(1.3656906 -0.34199635 0)
(1.2927279 -0.2833223 0)
(1.1911788 -0.23234108 0)
(1.0372249 -0.17649369 0)
(0.82426185 -0.1175587 0)
(0.5878852 -0.075599491 0)
(0.3577878 -0.04112152 0)
(0.1523076 -0.007741535 0)
(0.15855329 0.0027476053 0)
(0.40837758 0.014149267 0)
(0.61518897 0.016709101 0)
(0.76802439 0.016942983 0)
(0.95810113 0.068776661 0)
(1.2475303 0.1857645 0)
(1.5900259 0.3353988 0)
(1.7080837 0.28953098 0)
(1.559169 0.01686242 0)
(1.4289577 -0.22909192 0)
(1.4369416 -0.31911922 0)
(1.4699076 -0.32511786 0)
(1.4649838 -0.33902241 0)
(1.4486044 -0.35897823 0)
(1.4161554 -0.3794771 0)
(1.3853033 -0.37404031 0)
(1.3429284 -0.34093841 0)
(1.2905912 -0.28801476 0)
(1.2267321 -0.23690972 0)
(1.1327324 -0.19185135 0)
(0.98509221 -0.14283191 0)
(0.78419535 -0.097455958 0)
(0.56021129 -0.066959966 0)
(0.33556575 -0.039169966 0)
(0.13754602 -0.0087563767 0)
(0.14967865 0.0037318561 0)
(0.39812582 0.017200405 0)
(0.61347846 0.022898956 0)
(0.76054385 0.014639079 0)
(0.91424504 0.044024999 0)
(1.1628784 0.15258935 0)
(1.5016167 0.31933832 0)
(1.7338183 0.3888194 0)
(1.6639631 0.17825507 0)
(1.4999363 -0.11612471 0)
(1.4472702 -0.27911735 0)
(1.4564936 -0.30918643 0)
(1.438924 -0.30153114 0)
(1.4030547 -0.28622392 0)
(1.3549129 -0.28108644 0)
(1.3132042 -0.27814515 0)
(1.271568 -0.26613707 0)
(1.2229298 -0.23607795 0)
(1.1661313 -0.19355923 0)
(1.0785555 -0.15163517 0)
(0.93856959 -0.10984787 0)
(0.7503202 -0.076909735 0)
(0.53687791 -0.056234849 0)
(0.3157607 -0.03566427 0)
(0.12253207 -0.0093395272 0)
(0.13876576 0.0049131619 0)
(0.38451601 0.020678474 0)
(0.60843898 0.031099043 0)
(0.7594195 0.021055817 0)
(0.88362408 0.026463629 0)
(1.0852155 0.11249539 0)
(1.3953659 0.28043035 0)
(1.6994716 0.43573307 0)
(1.746144 0.34138209 0)
(1.5916313 0.043031227 0)
(1.4801841 -0.19993956 0)
(1.4528838 -0.28927408 0)
(1.4207261 -0.29482762 0)
(1.3669216 -0.26260693 0)
(1.3022697 -0.22335992 0)
(1.2476659 -0.19525729 0)
(1.2056482 -0.18099404 0)
(1.1611123 -0.17190711 0)
(1.1091898 -0.1484333 0)
(1.0287173 -0.11325966 0)
(0.89816427 -0.078861136 0)
(0.72242707 -0.056132702 0)
(0.51795169 -0.043909528 0)
(0.2989671 -0.030856306 0)
(0.10789864 -0.0094800704 0)
(0.1257963 0.0061357717 0)
(0.36781572 0.024087351 0)
(0.59798424 0.039539859 0)
(0.75934223 0.034826168 0)
(0.86698017 0.022942739 0)
(1.0204625 0.07390667 0)
(1.2861897 0.22688844 0)
(1.6140371 0.42909311 0)
(1.7799765 0.46815576 0)
(1.6878839 0.23440605 0)
(1.53752 -0.065995851 0)
(1.4641656 -0.23728794 0)
(1.4130954 -0.2887628 0)
(1.3432012 -0.27217681 0)
(1.2619967 -0.21797561 0)
(1.1920608 -0.15667682 0)
(1.145109 -0.11154885 0)
(1.1050964 -0.096441199 0)
(1.0564874 -0.092348492 0)
(0.98268111 -0.073120905 0)
(0.86315158 -0.048966442 0)
(0.69984242 -0.035088334 0)
(0.50344343 -0.030480489 0)
(0.28565556 -0.025007491 0)
(0.094292823 -0.0092010424 0)
(0.1110112 0.0072315367 0)
(0.34873802 0.026921198 0)
(0.58165824 0.046788175 0)
(0.75473786 0.052028357 0)
(0.85972566 0.035330302 0)
(0.97359092 0.050193831 0)
(1.1847973 0.16713075 0)
(1.4978612 0.38057462 0)
(1.7532024 0.53300226 0)
(1.7620186 0.42053742 0)
(1.6145019 0.1207509 0)
(1.4933133 -0.13180924 0)
(1.4160575 -0.25307279 0)
(1.3310004 -0.28073146 0)
(1.2340276 -0.24383783 0)
(1.1474508 -0.16893442 0)
(1.0906204 -0.086936413 0)
(1.0542464 -0.03539701 0)
(1.0108502 -0.027468721 0)
(0.94175908 -0.02629553 0)
(0.83292454 -0.017416435 0)
(0.68188791 -0.013293562 0)
(0.49335732 -0.016315566 0)
(0.27618854 -0.018379798 0)
(0.082306403 -0.0085384044 0)
(0.094991171 0.008032081 0)
(0.32827999 0.028680023 0)
(0.56036806 0.051976767 0)
(0.74196288 0.068391826 0)
(0.85364405 0.059273245 0)
(0.94386992 0.050615024 0)
(1.1004998 0.11755136 0)
(1.371491 0.30643927 0)
(1.6713711 0.53014703 0)
(1.7909346 0.56023447 0)
(1.6938964 0.33283452 0)
(1.5423744 0.03444165 0)
(1.4298504 -0.16653875 0)
(1.3276694 -0.25693693 0)
(1.2154877 -0.26412576 0)
(1.1117796 -0.20738897 0)
(1.0412585 -0.11010668 0)
(1.0056907 -0.01612751 0)
(0.97261925 0.026057675 0)
(0.90922504 0.024500728 0)
(0.80887332 0.017699974 0)
(0.66889076 0.0098735487 0)
(0.48784002 -0.0016475959 0)
(0.2708457 -0.011230979 0)
(0.072439725 -0.0075421256 0)
(0.078750394 0.008348264 0)
(0.30767577 0.028845244 0)
(0.53568981 0.05455264 0)
(0.7200299 0.08104684 0)
(0.84086393 0.08720028 0)
(0.92376295 0.07404117 0)
(1.0382826 0.095770767 0)
(1.2529621 0.22970765 0)
(1.5521605 0.4703572 0)
(1.7637564 0.62759518 0)
(1.7522874 0.52538765 0)
(1.6056996 0.24453457 0)
(1.4576219 -0.020330053 0)
(1.3316872 -0.18225986 0)
(1.2038594 -0.24873568 0)
(1.0827253 -0.23599983 0)
(0.9954671 -0.15609719 0)
(0.95576952 -0.041453844 0)
(0.9373928 0.045968517 0)
(0.88671748 0.065943951 0)
(0.79366709 0.053227648 0)
(0.66213977 0.0339436 0)
(0.4873073 0.013218343 0)
(0.2698704 -0.0038370549 0)
(0.065107307 -0.0062692304 0)
(0.063731288 0.0079672915 0)
(0.28842401 0.026856038 0)
(0.50941697 0.053889174 0)
(0.69000615 0.088612854 0)
(0.81677017 0.11243232 0)
(0.90303059 0.11089376 0)
(0.99503144 0.10783904 0)
(1.1561674 0.17705093 0)
(1.4191161 0.37988748 0)
(1.6842062 0.61619715 0)
(1.7711435 0.65847978 0)
(1.6682676 0.4598017 0)
(1.5009523 0.17514759 0)
(1.3450813 -0.051403838 0)
(1.1984996 -0.18305461 0)
(1.0598917 -0.22787184 0)
(0.95369373 -0.19178148 0)
(0.90320366 -0.089632758 0)
(0.89853501 0.027272047 0)
(0.87065823 0.083566888 0)
(0.7882885 0.080843109 0)
(0.66305637 0.056035937 0)
(0.49240105 0.027152034 0)
(0.27325502 0.003431435 0)
(0.060637545 -0.0047851457 0)
(0.051683755 0.0067256096 0)
(0.27237277 0.022192103 0)
(0.48355856 0.049111117 0)
(0.65415396 0.090198142 0)
(0.78054615 0.13076438 0)
(0.87392597 0.14957296 0)
(0.96140337 0.14501721 0)
(1.086152 0.16465148 0)
(1.296152 0.29529842 0)
(1.5683531 0.54154244 0)
(1.7417756 0.70900981 0)
(1.7124163 0.63659988 0)
(1.5544838 0.39074391 0)
(1.3725875 0.12668299 0)
(1.2015496 -0.065814132 0)
(1.0449052 -0.17201815 0)
(0.91880145 -0.19338134 0)
(0.85089362 -0.1314472 0)
(0.85217641 -0.015428981 0)
(0.85358872 0.073153044 0)
(0.79006079 0.092147121 0)
(0.67199564 0.07147498 0)
(0.50345695 0.038511425 0)
(0.28101561 0.010047252 0)
(0.059226114 -0.0031951345 0)
(0.044514905 0.0045760145 0)
(0.2616512 0.014584591 0)
(0.46058654 0.039279782 0)
(0.61558356 0.084529109 0)
(0.73445545 0.13945626 0)
(0.83368571 0.18082285 0)
(0.92801794 0.1911842 0)
(1.0379095 0.18879472 0)
(1.200216 0.24686126 0)
(1.4410666 0.44024579 0)
(1.667284 0.67640315 0)
(1.7238106 0.74151373 0)
(1.6068106 0.58669879 0)
(1.4153412 0.3294817 0)
(1.2182857 0.093762957 0)
(1.0406824 -0.069966636 0)
(0.89458607 -0.1516204 0)
(0.80469585 -0.14532984 0)
(0.79995185 -0.059326293 0)
(0.82894788 0.042849339 0)
(0.79345302 0.085004553 0)
(0.68677245 0.076337175 0)
(0.51978998 0.045193722 0)
(0.29286676 0.015178158 0)
(0.060732093 -0.0015262474 0)
(0.043864927 0.0015667073 0)
(0.25839812 0.0042217683 0)
(0.44348154 0.023838825 0)
(0.57834761 0.069945568 0)
(0.68301709 0.13577997 0)
(0.78423038 0.19807652 0)
(0.89006541 0.23109114 0)
(1.0019977 0.23136562 0)
(1.1357061 0.24242238 0)
(1.3284245 0.35458178 0)
(1.5632099 0.58556185 0)
(1.6963667 0.75946221 0)
(1.6446413 0.72609496 0)
(1.4677451 0.52445272 0)
(1.2527226 0.2766408 0)
(1.0514212 0.068537996 0)
(0.88461499 -0.068764632 0)
(0.77070603 -0.12186562 0)
(0.74826316 -0.084582213 0)
(0.79520497 0.0069687383 0)
(0.79293005 0.064511151 0)
(0.7032838 0.070071831 0)
(0.53932299 0.04578722 0)
(0.30763808 0.018029284 0)
(0.064756835 -7.206951e-05 0)
(0.050692442 -0.0018403991 0)
(0.26459553 -0.008238374 0)
(0.43545829 0.0031840932 0)
(0.54744784 0.045201922 0)
(0.63232578 0.11685454 0)
(0.73061737 0.19629802 0)
(0.847845 0.25355623 0)
(0.97120745 0.27173683 0)
(1.0966556 0.26743446 0)
(1.2474037 0.30937867 0)
(1.4540823 0.47843022 0)
(1.6346765 0.69987778 0)
(1.6577064 0.78509362 0)
(1.520303 0.67766869 0)
(1.3034777 0.45721432 0)
(1.0811456 0.22716335 0)
(0.89192719 0.045855114 0)
(0.75336552 -0.061991233 0)
(0.70544491 -0.080374458 0)
(0.75622262 -0.020262379 0)
(0.78544607 0.039636682 0)
(0.71734834 0.055859849 0)
(0.5591154 0.040566048 0)
(0.32354133 0.018236059 0)
(0.070691579 0.00094204224 0)
(0.064938207 -0.0050663958 0)
(0.28134392 -0.021039629 0)
(0.4399793 -0.020906181 0)
(0.52844287 0.010641497 0)
(0.58930454 0.080733338 0)
(0.67931324 0.17167965 0)
(0.80489653 0.25119416 0)
(0.94290834 0.29408633 0)
(1.07419 0.29832879 0)
(1.2012292 0.302008 0)
(1.3641551 0.3925525 0)
(1.5531866 0.59501697 0)
(1.6418359 0.76181418 0)
(1.5622797 0.76333287 0)
(1.3644755 0.60742887 0)
(1.1303317 0.38572561 0)
(0.91907275 0.17866309 0)
(0.75544752 0.02669311 0)
(0.67846799 -0.045248619 0)
(0.71848415 -0.029277527 0)
(0.77114948 0.018861407 0)
(0.72642938 0.03892275 0)
(0.5763892 0.031545183 0)
(0.33862401 0.016123449 0)
(0.077569543 0.0014023981 0)
(0.085357358 -0.0076129627 0)
(0.30791743 -0.032198673 0)
(0.45929084 -0.045470011 0)
(0.52654298 -0.030573697 0)
(0.56119292 0.027859273 0)
(0.6368883 0.12238153 0)
(0.7658181 0.21978998 0)
(0.91772416 0.28875904 0)
(1.0619188 0.31476474 0)
(1.1833835 0.31183524 0)
(1.3078637 0.34235509 0)
(1.4724888 0.48405253 0)
(1.6009623 0.67725888 0)
(1.5852329 0.77223416 0)
(1.4264066 0.70336061 0)
(1.1950809 0.52227887 0)
(0.96650361 0.31346657 0)
(0.77889801 0.13251604 0)