/*--------------------------------*- C++ -*----------------------------------*\
| =========                 |                                                 |
| \\      /  F ield         | OpenFOAM: The Open Source CFD Toolbox           |
|  \\    /   O peration     | Version:  2206                                  |
|   \\  /    A nd           | Website:  www.openfoam.com                      |
|    \\/     M anipulation  |                                                 |
\*---------------------------------------------------------------------------*/
FoamFile
{
    version     2.0;
    format      ascii;
    arch        "LSB;label=32;scalar=64";
    class       volScalarField;
    location    "4";
    object      p;
}
// * * * * * * * * * * * * * * * * * * * * * * * * * * * * * * * * * * * * * //

dimensions      [0 2 -2 0 0 0 0];

internalField   nonuniform List<scalar> 
2662
(
0.013460068
0.024681259
0.011619306
0.036410287
0.02287631
0.0040226252
0.048165362
0.034072424
0.013938711
-0.013503721
0.060045236
0.045704331
0.023924845
-0.0077233391
-0.039373477
0.075760463
0.059567919
0.035283347
-0.0014849415
-0.03918444
-0.074626948
0.10019268
0.075603941
0.048701967
0.0065744569
-0.03766547
-0.082972117
-0.13674589
0.073636049
0.082640806
0.0602628
0.016410962
-0.032903449
-0.089273372
-0.16132135
-0.23205026
0.015103301
0.04878044
0.080187309
0.057859984
0.024013848
-0.024883631
-0.091037944
-0.18334516
-0.27523472
-0.33577119
0.063312685
0.029538886
0.028533645
0.050540869
0.073275087
0.020905743
-0.018410876
-0.089161512
-0.19981654
-0.31426513
-0.39535746
-0.42141325
0.082401278
0.08923223
0.053416739
-0.0021307476
0.014844389
0.041905298
0.059412162
-0.02464218
-0.091187358
-0.21175896
-0.34640021
-0.44826188
-0.49081158
-0.45491668
0.10097255
0.099846344
0.096732633
0.063070652
-0.05781114
-0.027732998
-0.0050204688
0.025306741
0.043061058
-0.11114965
-0.22644718
-0.37232389
-0.49179364
-0.55147927
-0.52692443
-0.4117878
0.12299301
0.11975552
0.10017368
0.092431576
0.058975199
-0.16518588
-0.10277411
-0.063269417
-0.026833062
0.0045353698
0.024504256
-0.25602241
-0.39709292
-0.52616823
-0.60083745
-0.58923226
-0.47706777
0.1463445
0.13965959
0.12345088
0.098888935
0.081392482
0.046176857
-0.31695909
-0.22623283
-0.15552804
-0.099230549
-0.053833392
-0.018899487
0.0034445304
-0.42845003
-0.55435304
-0.63855933
-0.63938669
-0.53337429
-0.34051192
0.17259215
0.1615794
0.14054493
0.12265377
0.093133525
0.066965741
0.028820754
-0.47844033
-0.37374022
-0.27982332
-0.19980782
-0.1351323
-0.08293673
-0.04370508
-0.019161936
-0.58018466
-0.66584657
-0.67667931
-0.57844253
-0.38267717
-0.12580796
0.20156812
0.18628124
0.16312426
0.13834788
0.1153404
0.082743942
0.049973246
0.0087625846
-0.60985284
-0.5084028
-0.40616356
-0.31237532
-0.23218479
-0.16487616
-0.10975035
-0.067920795
-0.04181652
-0.68361859
-0.70151624
-0.61132219
-0.41651079
-0.15015935
0.13671339
0.23367882
0.21336832
0.18641327
0.16205729
0.13151874
0.10334987
0.068094806
0.030722722
-0.012437077
-0.69275381
-0.60907593
-0.50794897
-0.41062117
-0.32395896
-0.24906669
-0.18455488
-0.13120011
-0.089647066
-0.062965783
-0.71358861
-0.63236783
-0.4402377
-0.16646668
0.1262977
0.32716593
0.26810312
0.24298318
0.21284742
0.18368201
0.15487026
0.12074042
0.087683979
0.050057843
0.0098050127
-0.033356557
-0.71042397
-0.6697065
-0.58022221
-0.48382284
-0.39445489
-0.31673926
-0.2498475
-0.1931527
-0.145138
-0.10699939
-0.081540996
-0.64171917
-0.45693163
-0.18363653
0.10980324
0.31737377
0.39896937
0.30441917
0.2744265
0.24147608
0.20961461
0.17559631
0.14277893
0.1059102
0.068946181
0.029518765
-0.012188258
-0.053151808
-0.63747191
-0.68080806
-0.62346872
-0.53678457
-0.44458061
-0.36324608
-0.29551241
-0.23917874
-0.19153562
-0.15161996
-0.11958357
-0.097824931
-0.46580647
-0.19894393
0.092795586
0.30415111
0.39102529
0.3718442
0.34145781
0.30741255
0.2721437
0.23618235
0.20099047
0.16308688
0.12644469
0.087246412
0.047455676
0.0070651255
-0.034989986
-0.071830147
-0.47408896
-0.61710949
-0.6275649
-0.57282263
-0.48286396
-0.39801003
-0.326324
-0.2677043
-0.22125145
-0.18360513
-0.15282936
-0.12871264
-0.11327718
-0.21216423
0.073734635
0.28639731
0.3760877
0.36004862
0.31595521
0.37797575
0.34118349
0.30396869
0.26555104
0.22604736
0.18734146
0.1464183
0.10630945
0.065138724
0.023363736
-0.017133546
-0.058738256
-0.090212181
-0.24353504
-0.48122585
-0.57909472
-0.57732767
-0.51203946
-0.43070617
-0.35391937
-0.28812718
-0.23927269
-0.20181891
-0.17348215
-0.15199707
-0.13680367
-0.12964089
0.052058217
0.26303732
0.35380577
0.3409372
0.30042494
0.26930441
0.41249644
0.37480159
0.33644093
0.29581478
0.25440471
0.21133207
0.16914774
0.12566852
0.082649334
0.039881367
-0.0032906144
-0.043221698
-0.083666487
-0.10931638
-0.0021764478
-0.29756341
-0.48432695
-0.54712008
-0.52380415
-0.45962188
-0.38412066
-0.31257388
-0.25724828
-0.21471293
-0.18531554
-0.16523664
-0.1523704
-0.14618158
-0.14773747
0.22950289
0.32400921
0.3148531
0.27759211
0.25134867
0.23986376
0.44389108
0.40705453
0.36875325
0.32738045
0.28332451
0.23863909
0.19230374
0.14678882
0.1010086
0.055604908
0.011592168
-0.03251434
-0.071388926
-0.10971622
-0.12966543
0.1624438
-0.10627685
-0.35356981
-0.49043205
-0.51822106
-0.47983885
-0.41467284
-0.34403506
-0.2831327
-0.23310811
-0.19817641
-0.17501299
-0.1616597
-0.15608417
-0.15787197
-0.16700641
0.28717483
0.28449976
0.24951445
0.22857793
0.22149509
0.22230444
0.47111493
0.43672539
0.40006383
0.35886452
0.31423998
0.26661062
0.21842399
0.169102
0.12051795
0.072639129
0.025259911
-0.019710065
-0.064209503
-0.10150395
-0.13635308
-0.15111426
0.23095904
0.044021637
-0.21079483
-0.41328587
-0.50040739
-0.49605823
-0.44499248
-0.37913475
-0.31615945
-0.26141071
-0.21975621
-0.19009852
-0.17220314
-0.16404859
-0.16399488
-0.17164906
-0.18623244
0.25419441
0.2198241
0.20193001
0.2010712
0.2051037
0.21201883
0.49369943
0.46293706
0.42924808
0.38990607
0.34527736
0.29704588
0.24575752
0.193979
0.1418339
0.090492366
0.040709835
-0.0082991345
-0.053948625
-0.098001347
-0.1328455
-0.16269279
-0.17313503
0.21710679
0.1293182
-0.084099487
-0.32226455
-0.47250698
-0.51318291
-0.4807397
-0.41942542
-0.35487798
-0.29719721
-0.25046883
-0.21477201
-0.19043382
-0.17667428
-0.17228029
-0.17587946
-0.18696561
-0.20477465
0.19410038
0.17464865
0.17852312
0.18738145
0.19579701
0.2054287
0.51165748
0.48522295
0.45550584
0.41921422
0.37656843
0.32801965
0.27579608
0.22080355
0.16546866
0.11061303
0.056818402
0.0053264835
-0.044915549
-0.090769893
-0.13304156
-0.16405563
-0.18780601
-0.19520694
0.16732649
0.14513873
0.0078099346
-0.22423266
-0.42829955
-0.52807247
-0.52608074
-0.47091844
-0.40252793
-0.33967032
-0.28776646
-0.24718377
-0.21735509
-0.19747536
-0.18704089
-0.18525213
-0.19099118
-0.2035311
-0.22277585
0.15128941
0.15508751
0.16885991
0.18013921
0.19041271
0.20481605
0.52540216
0.50350225
0.47821852
0.44617427
0.40656374
0.35993
0.30704104
0.25049257
0.19175218
0.13298151
0.07553787
0.019587386
-0.033375954
-0.084240529
-0.12929394
-0.16785661
-0.19347365
-0.21106442
-0.21684483
0.1272485
0.11901928
0.050484927
-0.13236235
-0.36156255
-0.526784
-0.57429998
-0.53672432
-0.46484282
-0.39245392
-0.3321424
-0.28528984
-0.25025238
-0.22526095
-0.20916332
-0.20142584
-0.20145269
-0.20828498
-0.22100798
-0.24027942
0.13284251
0.14879114
0.16515585
0.17606565
0.19217671
0.53560597
0.517997
0.49724096
0.46994991
0.43481746
0.39111196
0.33982833
0.28221842
0.22111262
0.15858681
0.096551175
0.036680535
-0.021086056
-0.075100603
-0.12552027
-0.16793396
-0.20051188
-0.21978975
-0.23221378
-0.23735213
0.10686421
0.090150642
0.051573389
-0.068146981
-0.28006086
-0.49356283
-0.60751038
-0.60868034
-0.54349753
-0.46081746
-0.38729548
-0.33017426
-0.2879532
-0.2575248
-0.23653922
-0.22351078
-0.21792316
-0.21926926
-0.22656262
-0.23860509
-0.25619429
0.12637392
0.14860945
0.16378678
0.17933167
0.54302321
0.52920035
0.51265954
0.49033498
0.46025548
0.42117114
0.37261709
0.31606022
0.25338091
0.18758168
0.12126911
0.05617945
-0.0058898796
-0.064990215
-0.11919707
-0.16734731
-0.20450536
-0.22926111
-0.24249393
-0.2511139
-0.25568527
0.09498889
0.073857794
0.038910675
-0.036845774
-0.20406011
-0.42895659
-0.60562247
-0.66824414
-0.63009987
-0.54557236
-0.45754204
-0.38532881
-0.33188819
-0.29383702
-0.26731211
-0.24943424
-0.23885178
-0.23494171
-0.23709498
-0.24423794
-0.25519926
-0.26931542
0.12482772
0.1529003
0.16672792
0.54836813
0.53767918
0.5249071
0.50722383
0.48260341
0.44884379
0.40490553
0.35077057
0.28838273
0.22032319
0.1497721
0.079732059
0.011855692
-0.052044671
-0.11166695
-0.16443288
-0.20759658
-0.23681016
-0.25330785
-0.26171134
-0.26755311
-0.2712389
0.081315868
0.065101719
0.030684784
-0.025654783
-0.14710684
-0.34903557
-0.56433141
-0.69447269
-0.7073338
-0.63892239
-0.54306746
-0.45422867
-0.38517754
-0.3357215
-0.30140851
-0.27799064
-0.26265163
-0.25393015
-0.25126565
-0.25367319
-0.25989928
-0.26870835
-0.27908392
0.1335083
0.15919301
0.55209722
0.54387493
0.53442763
0.52094312
0.50153445
0.47373396
0.43533486
0.38563187
0.32520679
0.25650435
0.18280635
0.10751307
0.033883726
-0.036410096
-0.10148078
-0.1601802
-0.20884317
-0.24382674
-0.26355018
-0.27296055
-0.27778542
-0.28122197
-0.2829633
0.07289872
0.056738831
0.027819093
-0.018930995
-0.11022723
-0.27288927
-0.4930058
-0.67878592
-0.75635501
-0.72565314
-0.63708952
-0.53671705
-0.45053256
-0.38588263
-0.34050556
-0.30949019
-0.28863233
-0.2752714
-0.26806581
-0.26586647
-0.26771166
-0.2722162
-0.2781105
-0.28433243
0.16431125
0.55488448
0.54795677
0.54148614
0.53176717
0.51721667
0.49529128
0.46330709
0.41927013
0.36290636
0.29551068
0.22008051
0.14055374
0.060598499
-0.016372466
-0.088508633
-0.15353145
-0.20887872
-0.24990921
-0.27420276
-0.28489416
-0.28909908
-0.29099256
-0.29125807
-0.28950346
0.1017969
0.056287752
0.028689296
-0.01101071
-0.084398003
-0.21102643
-0.40862809
-0.62353654
-0.76543952
-0.78955366
-0.72696289
-0.62710903
-0.52762724
-0.44642797
-0.38684804
-0.34545462
-0.31734107
-0.29858514
-0.28674156
-0.28028643
-0.27796658
-0.27847107
-0.28046057
-0.28275828
-0.28554639
0.56593277
0.55119582
0.54626103
0.53990299
0.5297347
0.51348351
0.48806863
0.45081992
0.40012173
0.33622746
0.26121862
0.17871396
0.093247743
0.008796067
-0.071088345
-0.14407178
-0.20690459
-0.25536405
-0.28530136
-0.2984213
-0.30211075
-0.30260083
-0.30140588
-0.29777271
-0.29148233
0.032091432
0.077995916
0.03688311
-0.00055979195
-0.061916115
-0.16321499
-0.3276911
-0.54174496
-0.73185273
-0.81895253
-0.79933267
-0.71518595
-0.61180278
-0.51696676
-0.44206464
-0.38775951
-0.35011807
-0.32453813
-0.30748364
-0.29663266
-0.29033333
-0.28709695
-0.28550636
-0.28429133
-0.28341487
0.55241007
0.56398205
0.55093878
0.54586227
0.53933935
0.52822929
0.50936101
0.47934949
0.43569799
0.37729794
0.30503131
0.22181405
0.13195459
0.040530064
-0.048125182
-0.13015689
-0.20221183
-0.25947438
-0.2969536
-0.3139847
-0.31776042
-0.31668293
-0.31400763
-0.30903101
-0.30083624
0.038765217
0.011918347
0.049735219
0.013173929
-0.039128205
-0.12377653
-0.25813968
-0.45118309
-0.6627344
-0.80799534
-0.8437164
-0.79010943
-0.69492542
-0.59372067
-0.50575142
-0.43765658
-0.38850136
-0.35429119
-0.33089326
-0.3151271
-0.30472879
-0.29789269
-0.29302217
-0.28872549
-0.2846638
0.566973
0.54818896
0.56253031
0.55233321
0.54692283
0.53983878
0.52697079
0.50436154
0.46853616
0.41729727
0.35014141
0.26868699
0.17672108
0.079296778
-0.017988941
-0.1103172
-0.19308469
-0.26120147
-0.30841154
-0.33173005
-0.33680591
-0.33413601
-0.32962344
-0.32339728
-0.31388013
0.018463474
0.024623692
0.013094369
0.022097188
-0.016999748
-0.087754179
-0.19936716
-0.36494405
-0.57304759
-0.75899663
-0.85271889
-0.84295252
-0.76827237
-0.67033885
-0.57491839
-0.49473252
-0.43344456
-0.38907482
-0.35792908
-0.33633995
-0.32139915
-0.31084991
-0.30282623
-0.29579421
-0.28913257
0.57548377
0.55813701
0.55024272
0.56243492
0.554876
0.54936356
0.5411877
0.52552102
0.49789599
0.454952
0.39489732
0.31792168
0.22649
0.1252956
0.020179103
-0.08268866
-0.17766981
-0.25862371
-0.31829703
-0.35095652
-0.35961093
-0.3558484
-0.34905183
-0.3412086
-0.33046465
0.0044199635
0.0022672526
0.013613264
-0.00018378084
-0.0055451267
-0.055469579
-0.14753886
-0.28782884
-0.47794347
-0.68142939
-0.82535455
-0.86672312
-0.82451323
-0.73936524
-0.64427106
-0.55669374
-0.4845641
-0.42959897
-0.38955027
-0.36105066
-0.34083536
-0.32617845
-0.3148775
-0.30519472
-0.29636048
0.5872605
0.56858039
0.56143153
0.5542032
0.56359778
0.55852121
0.55292632
0.54297362
0.52329825
0.48927757
0.43783375
0.36768973
0.27982371
0.1776519
0.066815404
-0.045998508
-0.15381032
-0.24945575
-0.32435289
-0.37008754
-0.38572251
-0.38237365
-0.373134
-0.36308212
-0.35075972
-0.0018132173
-0.0039117236
-0.0072059348
-0.0066415963
-0.021509834
-0.037816595
-0.10301438
-0.21923441
-0.38636677
-0.58811905
-0.76653342
-0.85921292
-0.85760419
-0.79500072
-0.70789349
-0.61893826
-0.53985288
-0.4755023
-0.42626427
-0.38999503
-0.36365163
-0.34427497
-0.32928982
-0.31678806
-0.3057847
0.60585989
0.58590677
0.57373145
0.56897064
0.55920217
0.56653973
0.56326767
0.55729258
0.54463735
0.51960681
0.47771966
0.41631767
0.3347644
0.23493224
0.12128572
0.00047729143
-0.11979932
-0.23115095
-0.32377437
-0.38654677
-0.41369289
-0.41358355
-0.40247167
-0.38972631
-0.37522546
-0.0020107353
-0.0065312859
-0.010458731
-0.022094739
-0.029880789
-0.050260222
-0.077345945
-0.16090566
-0.30186504
-0.48962776
-0.68498149
-0.82202879
-0.86506734
-0.83278993
-0.76096276
-0.67690948
-0.59571751
-0.52504016
-0.46774405
-0.42353405
-0.39040713
-0.36562098
-0.34640572
-0.33051896
-0.31715623
0.63226181
0.60987664
0.59415269
0.58451414
0.57776832
0.56589873
0.57151562
0.5691153
0.56206984
0.5455174
0.51365218
0.46232404
0.38942286
0.29509195
0.18221101
0.05639095
-0.074570721
-0.20152131
-0.31347424
-0.39698582
-0.44093119
-0.44842721
-0.43714113
-0.42166808
-0.40441891
0.0048903498
-0.0028791026
-0.013257335
-0.024195045
-0.041871681
-0.058233376
-0.086182406
-0.12573031
-0.22941148
-0.39302423
-0.589359
-0.75934629
-0.84724732
-0.84999735
-0.79977476
-0.72645183
-0.6483324
-0.57535586
-0.5124655
-0.46132694
-0.42136768
-0.39064912
-0.36661031
-0.34684338
-0.3304632
0.66568786
0.64021523
0.62131291
0.60783676
0.5968095
0.58794778
0.57478786
0.57853825
0.57597829
0.566754
0.54486426
0.50453136
0.4420624
0.35603053
0.24750014
0.12047821
-0.018146383
-0.15908471
-0.29065804
-0.39763293
-0.46379145
-0.48470917
-0.47645488
-0.4590059
-0.43874365
0.018478008
0.0066325144
-0.0079115605
-0.025808096
-0.043758725
-0.067861323
-0.092556139
-0.13018503
-0.18396316
-0.30760648
-0.48779301
-0.67618032
-0.80571057
-0.84686919
-0.82218858
-0.76435702
-0.69407498
-0.62316133
-0.55809076
-0.50211991
-0.45620837
-0.41959585
-0.39031618
-0.36606955
-0.34604507
0.70376754
0.67591228
0.65445993
0.63726214
0.62333131
0.61011805
0.6001003
0.58589967
0.58741669
0.58355949
0.57071903
0.54182314
0.491207
0.41575211
0.31485657
0.19064281
0.048384374
-0.10348514
-0.25329149
-0.38488519
-0.47789737
-0.51902474
-0.51873424
-0.5011898
-0.47818496
0.038910841
0.021917579
0.0018707079
-0.018990311
-0.043827244
-0.068981608
-0.10038874
-0.13461547
-0.18294242
-0.25181496
-0.3930505
-0.5789484
-0.74172145
-0.82413234
-0.82846408
-0.78885802
-0.73010513
-0.66531305
-0.60177249
-0.54389046
-0.49386508
-0.45216424
-0.41773368
-0.38865724
-0.36436473
0.74262373
0.71467937
0.69199371
0.67244268
0.65525308
0.63991265
0.62513243
0.61438382
0.59897284
0.59781959
0.59136122
0.57321111
0.53539952
0.47247398
0.38202459
0.26441594
0.12296332
-0.035575982
-0.2005358
-0.35589837
-0.47873486
-0.54691558
-0.56116344
-0.54683499
-0.52211869
0.065299035
0.043024446
0.017596986
-0.0085488731
-0.036049931
-0.067476901
-0.1003994
-0.14008755
-0.18438668
-0.24403796
-0.32779675
-0.48128086
-0.65806831
-0.78124859
-0.81961151
-0.80027016
-0.7550586
-0.69933195
-0.6407667
-0.58417516
-0.53258033
-0.48743697
-0.44864569
-0.41488387
-0.38595942
0.77722534
0.75296473
0.73142888
0.71153493
0.69261383
0.67470888
0.65824705
0.64232745
0.63061694
0.61363009
0.60926896
0.598723
0.5733222
0.52441687
0.4469197
0.33928462
0.20297699
0.042665878
-0.13290791
-0.30910528
-0.46235492
-0.56331191
-0.59979504
-0.59358802
-0.56919898
0.096828151
0.069001412
0.038651416
0.0085693109
-0.024832703
-0.059007843
-0.097444167
-0.13828165
-0.18657123
-0.24129807
-0.31210589
-0.4089563
-0.56589062
-0.71760842
-0.79519105
-0.79998756
-0.76895796
-0.72387495
-0.67288276
-0.62055934
-0.57019649
-0.52387406
-0.48225663
-0.44462664
-0.41120174
0.80216098
0.78631338
0.76939835
0.75192979
0.73349876
0.71472641
0.69618135
0.67896549
0.66174315
0.64850587
0.62943573
0.62114612
0.60482234
0.56994945
0.50746911
0.41287635
0.28565798
0.12850806
-0.052240249
-0.24448234
-0.42604746
-0.56321828
-0.62980168
-0.63809963
-0.61726825
0.13223816
0.099048368
0.064332816
0.029033622
-0.0074837078
-0.046958272
-0.087919723
-0.13348514
-0.18230616
-0.23913555
-0.3040643
-0.38462794
-0.4907897
-0.63944146
-0.75324715
-0.78869944
-0.77326173
-0.73889993
-0.69684495
-0.65109046
-0.60456804
-0.5595569
-0.51719613
-0.47720829
-0.44007357
0.81271508
0.81001371
0.80188294
0.79030068
0.77538032
0.75790748
0.73926646
0.7202544
0.70220579
0.68318105
0.66772337
0.6458829
0.63269748
0.6086465
0.56174488
0.48286513
0.36836193
0.21892526
0.038644188
-0.16355909
-0.36879889
-0.5425026
-0.64593614
-0.67616517
-0.663366
0.1697126
0.13188127
0.093794718
0.054502306
0.013349787
-0.02920749
-0.074859413
-0.12255184
-0.17516041
-0.23179995
-0.29662044
-0.37076956
-0.45791108
-0.56763399
-0.69522302
-0.7653714
-0.76962932
-0.74558457
-0.7124807
-0.67458419
-0.63394193
-0.5925499
-0.55172124
-0.5113939
-0.47201095
0.80596541
0.81999082
0.82473084
0.82281782
0.81494475
0.80186539
0.7852297
0.76671194
0.74707694
0.72775899
0.70634063
0.68787676
0.66235786
0.64300839
0.60894276
0.54705333
0.44856031
0.31100508
0.13644356
-0.06915418
-0.29145757
-0.49859403
-0.64317136
-0.703032
-0.70382962
0.207352
0.16653948
0.12608045
0.083344064
0.038983162
-0.0079400379
-0.056505129
-0.1083077
-0.16253517
-0.22182667
-0.28579051
-0.35743385
-0.43894967
-0.52755672
-0.6335639
-0.72914406
-0.75895892
-0.74580102
-0.7206608
-0.6907709
-0.6572294
-0.62125499
-0.58404075
-0.54556201
-0.50588992
0.78152202
0.81373457
0.83439513
0.84561153
0.84838764
0.84327445
0.8317737
0.81584122
0.79719598
0.7764595
0.75528009
0.73083689
0.70845026
0.67809092
0.65094874
0.60414961
0.52383194
0.40206818
0.23794525
0.035145686
-0.19657242
-0.43094591
-0.61742857
-0.71384166
-0.73447728
0.24361539
0.20169203
0.15996101
0.1153002
0.06771923
0.017926802
-0.034694783
-0.089180987
-0.14693762
-0.20735063
-0.27266521
-0.3430803
-0.41967237
-0.50566909
-0.5890101
-0.68336577
-0.74108055
-0.74179607
-0.72297862
-0.70025009
-0.67411381
-0.64466502
-0.61264898
-0.57799837
-0.54017496
0.74171763
0.79088788
0.82870876
0.85541822
0.87189809
0.87829011
0.87549048
0.86536748
0.84982084
0.83056587
0.80809084
0.78437698
0.75617176
0.72875898
0.6920989
0.65509715
0.59230413
0.4895418
0.34034253
0.14574501
-0.08786293
-0.34114056
-0.56627057
-0.70414788
-0.75085683
0.27691444
0.23578494
0.19440945
0.14886179
0.099719261
0.046897312
-0.0084914026
-0.066759711
-0.12696445
-0.1902936
-0.256361
-0.32673108
-0.40230555
-0.48120004
-0.56722292
-0.63774554
-0.7131873
-0.73549659
-0.72182029
-0.70429071
-0.68501263
-0.66246276
-0.63657077
-0.60721688
-0.57318463
0.69102578
0.75346256
0.80733238
0.85026221
0.8822769
0.90304527
0.91247325
0.91172306
0.90265289
0.88700898
0.86655025
0.84164256
0.81460286
0.78170691
0.74791279
0.70312074
0.65364185
0.57091593
0.44100149
0.25964462
0.030664439
-0.23251846
-0.48939272
-0.67046352
-0.74856762
0.30615081
0.2675173
0.22802238
0.18327848
0.13346195
0.079239356
0.020916109
-0.040128345
-0.10391555
-0.16952909
-0.23786902
-0.30885975
-0.3830092
-0.46185694
-0.53954798
-0.61908128
-0.6704804
-0.72303082
-0.72059893
-0.70472452
-0.69091388
-0.67496712
-0.65549019
-0.63221798
-0.60339224
0.63503694
0.70530485
0.77199237
0.82980617
0.87759491
0.91428668
0.93876608
0.95092511
0.95191911
0.94344506
0.92713793
0.90484585
0.87675349
0.8454148
0.80663708
0.76477235
0.70953548
0.64424748
0.53678519
0.37420431
0.15562908
-0.10927669
-0.3886553
-0.61078088
-0.72369944
0.33070722
0.2959349
0.25967004
0.21708891
0.16842601
0.11360762
0.05382879
-0.010183164
-0.07684959
-0.14591417
-0.21651815
-0.28914252
-0.36410031
-0.44042201
-0.5197076
-0.59173291
-0.65721765
-0.68703603
-0.7182041
-0.70500882
-0.69319984
-0.68297897
-0.66968997
-0.6525856
-0.62968334
0.57933325
0.65124563
0.72600099
0.79560311
0.85750502
0.91004925
0.95102504
0.97892016
0.99354977
0.99588123
0.98747578
0.96990549
0.94510435
0.91296591
0.87612484
0.82994519
0.77787756
0.70924283
0.62386717
0.48576316
0.2842693
0.024674987
-0.26750568
-0.52489806
-0.67340203
0.35044773
0.3204489
0.28832698
0.24936391
0.20311252
0.14958004
0.08915469
0.023452912
-0.04635612
-0.11852652
-0.19251226
-0.26757334
-0.34361005
-0.42127296
-0.49772636
-0.57335891
-0.63453296
-0.6802249
-0.69140744
-0.70753558
-0.69430489
-0.68763143
-0.67986187
-0.66843376
-0.65151114
0.52857782
0.59616833
0.67356952
0.75065756
0.82350408
0.88996779
0.94722253
0.99227506
1.0233788
1.0401514
1.0433453
1.0344521
1.0149722
0.98687979
0.94966468
0.90584244
0.85032781
0.78533602
0.69948869
0.58847055
0.41256507
0.16609711
-0.13002901
-0.41437576
-0.59643995
0.36562691
0.34081998
0.3134216
0.27898187
0.23669032
0.18572718
0.12650989
0.059947799
-0.011946008
-0.087572049
-0.16504776
-0.24349647
-0.32235559
-0.4007909
-0.47942278
-0.55327263
-0.62007052
-0.66559172
-0.69070145
-0.69037549
-0.69905581
-0.69074796
-0.68701373
-0.6805052
-0.66894934
0.48598042
0.54426001
0.61903984
0.69884761
0.77850109
0.85554848
0.92697248
0.98889924
1.037888
1.0719544
1.0904716
1.0940228
1.0840514
1.061922
1.0295832
0.9860279
0.93340231
0.86608714
0.78465846
0.67661721
0.53280007
0.31063433
0.019514665
-0.28230872
-0.49341552
0.3767728
0.35715726
0.33464325
0.30537553
0.26795478
0.22121139
0.16458943
0.098968377
0.025816529
-0.052457873
-0.13383329
-0.21633416
-0.29870347
-0.38054459
-0.46015454
-0.53730977
-0.60479327
-0.6574753
-0.68513236
-0.69453916
-0.69013747
-0.69626176
-0.69246293
-0.68978147
-0.68255802
0.45313627
0.49856668
0.5662593
0.64424965
0.72628259
0.80972482
0.89180627
0.96838793
1.0349269
1.0876847
1.1243986
1.1442199
1.1475936
1.1358817
1.1102209
1.0724485
1.0209767
0.95727255
0.87498734
0.77254927
0.63586272
0.44952508
0.17579059
-0.13352283
-0.36662654
0.38457921
0.36975836
0.35207872
0.32811344
0.29630301
0.2547798
0.20249954
0.13934122
0.066676779
-0.013440603
-0.098213032
-0.18519139
-0.27235173
-0.35802474
-0.44179873
-0.5209148
-0.59320043
-0.64962998
-0.68471241
-0.69679412
-0.69787225
-0.69395413
-0.69862327
-0.69739792
-0.69333486
0.4301851
0.46081132
0.51820999
0.59057744
0.67086823
0.75632742
0.84472023
0.93229027
1.014075
1.0851295
1.1414285
1.1804213
1.2010713
1.2036698
1.1894371
1.1591778
1.1144907
1.0531057
0.9754304
0.87405961
0.74457435
0.57063361
0.33054643
0.025117866
-0.22006257
0.38961513
0.37892968
0.36589317
0.34719097
0.32116793
0.28572817
0.23895582
0.18011259
0.10959563
0.029314413
-0.058072632
-0.14939195
-0.24176047
-0.33311913
-0.42136765
-0.50563041
-0.58171497
-0.64473637
-0.68571136
-0.70355127
-0.70587407
-0.70437251
-0.70319249
-0.70492274
-0.70250508
0.41559707
0.43142909
0.4769199
0.54083089
0.61595441
0.69941806
0.78963008
0.88366186
0.97689037
1.0638526
1.1392809
1.1988359
1.2396943
1.2606372
1.2617553
1.2440558
1.2078944
1.1544375
1.0805751
0.9851789
0.85923578
0.69393101
0.47298179
0.18721544
-0.060223073
0.3926253
0.38485609
0.37617506
0.36259772
0.34239992
0.31334945
0.27310461
0.2199602
0.15357067
0.074923502
-0.013491832
-0.10838951
-0.20623566
-0.30372459
-0.39869588
-0.48852743
-0.57112709
-0.64035767
-0.68930219
-0.71292765
-0.7179942
-0.71612401
-0.71444691
-0.71351397
-0.71122889
0.40525242
0.41023183
0.44354137
0.49720037
0.56453556
0.64271433
0.7306743
0.82650506
0.92648013
1.0254192
1.1175013
1.1971108
1.2595815
1.3018296
1.3224287
1.3212067
1.2988731
1.2551936
1.1906211
1.1009442
0.98280697
0.8245454
0.61278683
0.35230644
0.10473021
0.40422033
0.38903657
0.38314665
0.37437128
0.35983096
0.33731817
0.30409689
0.25785949
0.19723275
0.12234446
0.034838327
-0.062178463
-0.16477413
-0.2690577
-0.37132693
-0.46911092
-0.55892522
-0.63652696
-0.69387089
-0.72519755
-0.7336736
-0.7317128
-0.72831662
-0.72535999
-0.72107827
0.38949853
0.39719401
0.41842966
0.46114016
0.51870694
0.58921676
0.67161179
0.76505778
0.86693216
0.97298913
1.0776626
1.174769
1.2583054
1.3232808
1.3663435
1.3858172
1.381191
1.3527602
1.29952
1.220817
1.1108518
0.962865
0.76392331
0.51185987
0.27532585
0.40261967
0.38939923
0.3831124
0.37357916
0.35736081
0.33143152
0.29281646
0.23938065
0.17016383
0.085842861
-0.011218601
-0.11725819
-0.22769373
-0.33825094
-0.4448139
-0.54415237
-0.63118331
-0.69890152
-0.73931053
-0.75296486
-0.75136606
-0.74607707
-0.74069427
-0.7336613
0.38571309
0.40273559
0.43260494
0.48001576
0.5408523
0.61552794
0.70314374
0.80261172
0.91073961
1.0229843
1.1333913
1.2353638
1.3224912
1.389457
1.432617
1.44999
1.4406277
1.4042402
1.3388028
1.2419649
1.1055303
0.92022202
0.68719248
0.44837108
0.40183155
0.39172069
0.38460667
0.37367719
0.35476171
0.32416511
0.27887216
0.21700371
0.13807854
0.043398363
-0.063892809
-0.1793361
-0.29770778
-0.4142666
-0.52427746
-0.6229386
-0.70261676
-0.75448029
-0.77534329
-0.77526811
-0.7681635
-0.76017326
-0.75036881
0.38913474
0.41306164
0.44802594
0.49930977
0.56424465
0.64401859
0.73742894
0.843191
0.95773606
1.07626
1.1923407
1.2989305
1.3892018
1.4574999
1.4998505
1.5138943
1.4981095
1.4513678
1.3702228
1.2498232
1.081036
0.86493479
0.64043649
0.40270555
0.39518338
0.38727474
0.37425856
0.35147323
0.31487654
0.26156979
0.1899939
0.10021792
-0.005750616
-0.12393398
-0.24912803
-0.3754617
-0.49750885
-0.60929361
-0.70326235
-0.76906082
-0.8001166
-0.80338318
-0.79493296
-0.78428055
-0.77164031
0.39503404
0.42467722
0.46395966
0.51965604
0.58948184
0.67485542
0.77435805
0.88661248
1.0077367
1.1325793
1.2541793
1.3650187
1.4578387
1.526621
1.5670087
1.5761605
1.5517886
1.4915269
1.3899917
1.241153
1.0465932
0.83503619
0.40513143
0.39954634
0.39066473
0.37474818
0.34683284
0.30285106
0.24013643
0.15752423
0.055718015
-0.06248223
-0.19221684
-0.32747246
-0.46163028
-0.58803626
-0.69824814
-0.78098183
-0.82583479
-0.83539895
-0.82662981
-0.81341946
-0.79790541
0.40228208
0.43739928
0.48097426
0.54165669
0.61671798
0.70794172
0.81375088
0.93269785
1.0605275
1.1916336
1.3184757
1.4330445
1.5276261
1.595799
1.6327486
1.6349981
1.5991972
1.5212769
1.3953989
1.224259
1.0311186
0.40944569
0.40468972
0.39432377
0.37449023
0.34010809
0.28729165
0.21369749
0.1186515
0.0035845959
-0.12781918
-0.26976284
-0.41530951
-0.5567115
-0.68491834
-0.78739739
-0.8502871
-0.87027673
-0.86323202
-0.84785677
-0.82945558
0.41125978
0.45157454
0.49947714
0.56542326
0.64580314
0.74309573
0.85541751
0.98124397
1.1158186
1.2530092
1.3846628
1.5022466
1.5975556
1.6637087
1.6953207
1.688039
1.6371323
1.5381615
1.3933513
1.2206861
0.41568609
0.41052671
0.39777434
0.37278875
0.33049996
0.26729815
0.18125164
0.072287801
-0.057338252
-0.20295996
-0.35774949
-0.51355183
-0.66047307
-0.78511933
-0.87034998
-0.90603879
-0.90410543
-0.88759356
-0.86639351
0.42215927
0.46719745
0.5194732
0.59074614
0.67650902
0.78012192
0.89913985
1.0319731
1.1732076
1.3161533
1.4519938
1.5716304
1.6663168
1.7286266
1.7524261
1.7322387
1.6632145
1.5476783
1.3990581
0.42362552
0.41684971
0.40046497
0.36889898
0.31711757
0.24183918
0.14164045
0.017164668
-0.12840708
-0.28930705
-0.45745365
-0.62265674
-0.7708098
-0.88226849
-0.93962363
-0.94773037
-0.93211937
-0.90851091
0.43473942
0.48400657
0.54074994
0.61732105
0.70861829
0.8187852
0.94462678
1.0844894
1.2321464
1.3803304
1.5194867
1.6398972
1.7322028
1.7882964
1.8011201
1.7651923
1.6815569
1.5601528
0.43286775
0.42324195
0.40176009
0.36199071
0.29893973
0.20971669
0.093509382
-0.048211458
-0.21122287
-0.38846234
-0.56996818
-0.74156603
-0.88197611
-0.96701683
-0.99150065
-0.98017048
-0.95517092
0.44855382
0.50168936
0.56301485
0.64483957
0.7418898
0.85875697
0.99147187
1.1382405
1.2919003
1.4445647
1.5858506
1.705348
1.7929774
1.8398272
1.8389339
1.7898523
1.6987269
0.44292979
0.42914216
0.4009209
0.35110027
0.27477021
0.16952159
0.035257927
-0.12561317
-0.30766517
-0.50207604
-0.69530748
-0.8656722
-0.98354633
-1.0317167
-1.0295445
-1.0051099
0.46313348
0.51993395
0.58592168
0.672971
0.77598448
0.89957408
1.0391127
1.1924725
1.3514885
1.5075623
1.6493846
1.7657466
1.8457709
1.8806978
1.8679463
1.8101084
0.45323876
0.43387364
0.39706813
0.33507876
0.24318613
0.11957859
-0.035022604
-0.21715215
-0.41985019
-0.63118898
-0.83035966
-0.98444958
-1.0637777
-1.0770493
-1.0562943
0.47801965
0.53838404
0.60904798
0.70130412
0.8104049
0.94060673
1.0867773
1.2461688
1.4096021
1.5676039
1.7078305
1.8182127
1.8880482
1.9124765
1.8902542
0.46315162
0.43663198
0.38913393
0.31253507
0.20247637
0.057877481
-0.11962547
-0.32531553
-0.54972715
-0.77434257
-0.96551129
-1.082563
-1.1186098
-1.1058905
0.49273114
0.55658064
0.63186342
0.72928382
0.84445225
0.98101246
1.13341
1.297966
1.4644862
1.6223809
1.7582621
1.8602437
1.921257
1.9362428
0.47194221
0.43644465
0.3758035
0.28176885
0.15056649
-0.01801227
-0.22131548
-0.45279044
-0.6974931
-0.92370277
-1.0829869
-1.149537
-1.1503281
0.50670929
0.57391852
0.65368952
0.75614782
0.87718024
1.0196582
1.177572
1.3460297
1.5137504
1.668871
1.7982381
1.8935628
1.9461818
0.47875342
0.4321097
0.35544228
0.24068673
0.084924872
-0.11105605
-0.34333043
-0.60130765
-0.85766304
-1.0606568
-1.1649076
-1.1854513
0.51925628
0.58960884
0.67364008
0.78085581
0.90732146
1.0550051
1.2173051
1.3878404
1.5542114
1.704687
1.8301439
1.9193889
0.48252728
0.42211494
0.3260013
0.18669625
0.0024340644
-0.22486873
-0.48868343
-0.76794639
-1.0125243
-1.1600255
-1.2067335
0.52947374
0.60262685
0.69053721
0.80200018