/*--------------------------------*- C++ -*----------------------------------*\
| =========                 |                                                 |
| \\      /  F ield         | OpenFOAM: The Open Source CFD Toolbox           |
|  \\    /   O peration     | Version:  2206                                  |
|   \\  /    A nd           | Website:  www.openfoam.com                      |
|    \\/     M anipulation  |                                                 |
\*---------------------------------------------------------------------------*/
FoamFile
{
    version     2.0;
    format      ascii;
    arch        "LSB;label=32;scalar=64";
    class       surfaceScalarField;
    location    "4";
    object      phi;
}
// * * * * * * * * * * * * * * * * * * * * * * * * * * * * * * * * * * * * * //

dimensions      [0 3 -1 0 0 0 0];

oriented        oriented;

internalField   nonuniform List<scalar> 
5217
(
-2.5543197e-05
3.6494804e-06
-2.9327562e-05
3.7843652e-06
-8.5202544e-05
9.8622476e-06
-3.3189271e-05
3.8617091e-06
-9.1644078e-05
1.02259e-05
-0.00014705241
1.7403653e-05
-3.7033179e-05
3.8439083e-06
-9.8183189e-05
1.040082e-05
-0.00015458473
1.7758213e-05
-0.00019528964
2.4608073e-05
-4.0758658e-05
3.7254794e-06
-0.00010473274
1.0393458e-05
-0.00016198517
1.7801265e-05
-0.00020218752
2.4656088e-05
-0.00022709832
3.2087872e-05
-4.4413139e-05
3.654481e-06
-0.00011129989
1.0292634e-05
-0.00016919126
1.7599552e-05
-0.0002087321
2.4345847e-05
-0.000234507
3.2064771e-05
-0.00026067354
4.2503213e-05
-4.8101294e-05
3.6881552e-06
-0.00011780661
1.0161197e-05
-0.00017611119
1.7212564e-05
-0.00021487064
2.3738093e-05
-0.00024177397
3.1612812e-05
-0.00027099692
4.238815e-05
-0.00029612836
5.3922234e-05
-2.6075814e-05
7.5939626e-05
-9.7965105e-05
-0.00012384531
9.7268541e-06
-0.00018253909
1.6589095e-05
-0.00022052266
2.2864579e-05
-0.00024880579
3.0769922e-05
-0.0002810056
4.1621499e-05
-0.00030656728
5.2827077e-05
-0.0003097164
6.1496302e-05
-2.4813868e-05
-1.2619458e-06
0.00011802143
-0.00016592711
-7.6208382e-05
0.00012343264
-0.00014518936
-0.00018838453
1.5572298e-05
-0.00022566771
2.1734145e-05
-0.00025554339
2.9602175e-05
-0.00029048616
4.0250476e-05
-0.00031574411
5.0798331e-05
-0.00031551474
5.8625416e-05
-0.00029148171
6.343817e-05
-3.0992456e-05
6.1785878e-06
-8.0984172e-05
3.5138453e-06
0.0001427514
-0.00021311451
0.00015130221
-0.00019379668
-0.0001182378
0.0001461298
-0.00017308137
-0.00023044238
2.0346976e-05
-0.00026199369
2.8184445e-05
-0.00029923144
3.8347459e-05
-0.00032345676
4.7963118e-05
-0.00031946382
5.4747419e-05
-0.00029156046
5.8704163e-05
-0.00024934568
6.0144061e-05
-3.305579e-05
2.0633345e-06
-8.5344373e-05
1.0538789e-05
-0.00012162028
6.8963307e-06
0.00015467296
-0.00024236394
0.00016104917
-0.00022286147
0.00015490451
-0.0002025714
-0.0001416992
0.00015361226
-0.00018499443
-0.00026807714
2.6430423e-05
-0.00030701321
3.5966214e-05
-0.00032956481
4.4455512e-05
-0.0003215492
5.0048495e-05
-0.00028980529
5.2992252e-05
-0.0002445075
5.3865982e-05
-0.00018933935
5.3163102e-05
-3.5858824e-05
2.8030351e-06
-8.650052e-05
3.219482e-06
-0.00012011567
9.0341768e-06
-0.00014118851
6.385641e-06
0.00016597414
-0.00027937832
0.00016645047
-0.00024776523
0.00015563231
-0.00022358926
0.00015617625
-0.00020513539
-0.00015151506
0.00015508866
-0.00018856803
-0.00031382897
3.3246181e-05
-0.00033400723
4.0408635e-05
-0.00032180942
4.4715736e-05
-0.00028630177
4.6544976e-05
-0.00023824188
4.6726641e-05
-0.00018113672
4.5663362e-05
-0.00012495081
-3.7862053e-05
2.003229e-06
-8.9087613e-05
5.3901286e-06
-0.00011931282
2.4166312e-06
-0.0001356508
3.4964735e-06
-0.00014768003
2.5506106e-06
0.00016849752
-0.00031635235
0.00017103915
-0.00028396701
0.00015971218
-0.0002518451
0.00015805128
-0.00022546429
0.00015458335
-0.00020463008
-0.00015397847
0.00015323706
-0.00018782661
-0.00033697831
3.6217265e-05
-0.00032035709
3.8956306e-05
-0.00028118897
3.9602932e-05
-0.00023067017
3.8973265e-05
-0.00017185906
3.744898e-05
-0.00011348125
3.4193809e-05
-3.955585e-05
1.6937975e-06
-8.9263073e-05
2.1786887e-06
-0.00011776891
3.8462186e-06
-0.00013322786
-6.3158412e-09
-0.00014136326
-2.8202905e-06
-0.00014848529
-2.9425715e-06
0.00014899531
-0.0003174761
0.00015799616
-0.00030330935
0.00015604324
-0.00028029807
0.00015854469
-0.00025233851
0.00015373272
-0.00022461365
0.00015096188
-0.0002023549
-0.00015272818
0.00014963207
-0.00018473051
-0.00031735514
3.321531e-05
-0.00027465093
3.2418265e-05
-0.00022193733
3.0870093e-05
-0.00016165762
2.8771825e-05
-0.00010135451
2.5322235e-05
-5.0360947e-05
2.0805155e-05
-4.0621198e-05
1.0653481e-06
-8.9378927e-05
1.8096521e-06
-0.0001151396
-4.5061378e-07
-0.00012871389
-6.6774503e-07
-0.00013767049
-3.6990863e-06
-0.000142454
-8.8515824e-06
-0.00014671409
-8.9566563e-06
0.00011162074
-0.00027998056
0.00012350044
-0.00028298039
0.0001324234
-0.00027968951
0.00014476932
-0.0002665227
0.00014624018
-0.00024484597
0.00014724392
-0.00022089569
0.00014590242
-0.00019862526
-0.00014931186
0.00014470862
-0.00018012727
-0.00026684313
2.5407512e-05
-0.00021222663
2.2707557e-05
-0.00015066981
1.9882279e-05
-8.8709413e-05
1.6126731e-05
-3.6826583e-05
1.1787871e-05
-3.5191378e-06
9.4133611e-06
-4.1152753e-05
5.315551e-07
-8.8162226e-05
-1.513522e-07
-0.00011265405
-6.7589837e-07
-0.00012507755
-4.0869604e-06
-0.000132192
-6.1462416e-06
-0.00013786869
-8.2843992e-06
-0.00014103141
-1.4534267e-05
-0.00014329893
-1.4969585e-05
6.8605133e-05
-0.00022382752
7.9578558e-05
-0.00023605868
9.5317211e-05
-0.0002458742
0.0001139254
-0.00024884559
0.00012336624
-0.00024364876
0.00013323983
-0.00023084189
0.00013713574
-0.000212129
0.00013826834
-0.00019218498
-0.00014433737
0.0001382129
-0.0001740028
-0.00020166995
1.4850839e-05
-0.00013902895
1.1066695e-05
-7.5704666e-05
6.8775315e-06
-2.3445973e-05
2.7461213e-06
7.1816548e-06
1.0870783e-06
2.9218525e-06
2.3294252e-06
-4.1074463e-05
-7.8289182e-08
-8.652831e-05
-1.1023611e-06
-0.00010931772
-3.4876877e-06
-0.00012098332
-4.7701205e-06
-0.00012831516
-7.9638027e-06
-0.000132557
-1.1457928e-05
-0.00013609687
-1.3218939e-05
-0.00013798177
-1.9851427e-05
-0.00013860298
-2.0703974e-05
2.8234699e-05
-0.00016129952
3.8275831e-05
-0.0001825248
5.6192636e-05
-0.0001969341
7.4294754e-05
-0.00020624356
8.7754873e-05
-0.00021323422
0.00010491356
-0.00021532249
0.00011581724
-0.00020952339
0.00012371987
-0.00019758053
0.00012803607
-0.00018200815
-0.00013813102
0.00012996257
-0.00016583436
-0.000126823
2.6448926e-06
-6.2619662e-05
-2.0183084e-06
-1.0381866e-05
-6.186575e-06
1.7525569e-05
-7.5977934e-06
8.9502369e-06
-4.941306e-06
-4.1825363e-05
4.7083199e-07
-4.0332862e-05
-7.4160126e-07
-8.4061503e-05
-2.5450961e-06
-0.00010595463
-4.4654533e-06
-0.00011705044
-7.4205736e-06
-0.0001236814
-9.4038755e-06
-0.00012852708
-1.1993725e-05
-0.00013124502
-1.6309774e-05
-0.00013310524
-1.8095471e-05
-0.00013379348
-2.4660925e-05
-0.00013284383
-2.5991163e-05
-5.8328053e-06
-9.2755495e-05
3.4345303e-06
-0.00012645822
2.0535781e-05
-0.00014686794
3.5657021e-05
-0.00015829637
4.9834056e-05
-0.00016832274
6.9073088e-05
-0.00017739374
8.347223e-05
-0.00018297748
9.7735428e-05
-0.00018353895
0.00010829151
-0.00017783597
0.00011540485
-0.00016745043
-0.00013078375
0.00011966118
-0.00015471179
-4.9227893e-05
-1.0746877e-05
2.6555851e-06
-1.505576e-05
2.7370734e-05
-1.6031739e-05
1.3448671e-05
-1.2096227e-05
-4.2073331e-05
-4.6933386e-06
-0.00012273411
3.1326417e-06
-3.8928874e-05
-1.4039878e-06
-8.1126056e-05
-3.6770483e-06
-0.00010205034
-6.4493822e-06
-0.00011308559
-8.430298e-06
-0.00011983467
-1.1267301e-05
-0.00012404204
-1.3888917e-05
-0.00012717043
-1.6068321e-05
-0.00012873252
-2.0682498e-05
-0.00012920079
-2.2688162e-05
-0.00012877683
-2.8727921e-05
-0.00012615342
-3.0621494e-05
-3.138132e-05
-2.3679378e-05
-2.4468823e-05
-6.4852143e-05
-1.0823058e-05
-9.5099379e-05
2.7410794e-06
-0.000113952
1.7267113e-05
-0.00012572943
3.4895726e-05
-0.00013414538
4.8669151e-05
-0.00014259066
6.5246434e-05
-0.00015048848
7.9392883e-05
-0.00015464033
9.1471268e-05
-0.00015390238
0.00010069057
-0.00014847982
-0.00012203248
0.00010712104
-0.00013980035
1.518698e-05
-2.3278272e-05
3.6136844e-05
-2.382187e-05
1.6056618e-05
-1.8639686e-05
-4.4783514e-05
-9.3860447e-06
-0.00012717001
-2.5742938e-07
-0.00020407859
5.8462189e-06
-3.6953727e-05
-1.9751467e-06
-7.7580826e-05
-4.9492169e-06
-9.80451e-05
-7.6822873e-06
-0.00010905468
-1.0480299e-05
-0.00011578487
-1.2480098e-05
-0.00012040951
-1.4899825e-05
-0.00012310073
-1.7958613e-05
-0.00012479013
-2.0010704e-05
-0.00012533043
-2.455286e-05
-0.00012459822
-2.6866769e-05
-0.00012305524
-3.1826096e-05
-0.00011848924
-3.4164733e-05
-4.7470724e-05
3.1276384e-05
-4.5093498e-05
-3.054703e-06
-3.600994e-05
-3.9665261e-05
-2.3867386e-05
-6.8490913e-05
-9.5006669e-06
-8.7184219e-05
6.2002006e-06
-9.70339e-05
1.8685648e-05
-0.00010416188
3.4269217e-05
-0.00011161345
4.8034505e-05
-0.00011913011
6.1929202e-05
-0.00012509826
7.4317455e-05
-0.00012752927
8.4554291e-05
-0.00012591307
-0.0001113145
9.2401836e-05
-0.00012088769
4.3652164e-05
-3.0793592e-05
1.669355e-05
-2.4458802e-05
-4.9743409e-05
-1.3679791e-05
-0.00013348429
-3.0717728e-06
-0.00020807733
3.7413091e-06
-0.00024951279
5.4514064e-06
-3.447619e-05
-2.4775374e-06
-7.3558245e-05
-5.9977284e-06
-9.374928e-05
-9.2450371e-06
-0.00010505719
-1.1679773e-05
-0.00011208434
-1.4180829e-05
-0.0001165981
-1.6291514e-05
-0.00011966252
-1.8338037e-05
-0.00012118607
-2.1562671e-05
-0.0001216587
-2.3682436e-05
-0.00012127868
-2.7872401e-05
-0.00011944514
-3.0476875e-05
-0.00011651191
-3.3803431e-05
-0.00010951753
-3.5961703e-05
-5.4767628e-05
5.0949068e-05
-5.6655353e-05
4.2838239e-05
-5.2959421e-05
1.3894779e-05
-4.4208211e-05
-1.9324436e-05
-3.1513789e-05
-4.6477791e-05
-1.7441323e-05
-6.3542696e-05
-4.8989661e-06
-7.3449285e-05
9.2116851e-06
-7.9104346e-05
2.10032e-05
-8.4582142e-05
3.3798378e-05
-9.0999283e-05
4.6122631e-05
-9.6903438e-05
5.7663285e-05
-0.00010063826
6.7737557e-05
-0.00010124879
-9.8046104e-05
7.592e-05
-9.8761585e-05
1.5180186e-05
-2.9280228e-05
-5.6698252e-05
-1.750396e-05
-0.00014115626
-6.0078211e-06
-0.0002125757
1.4266026e-06
-0.00024974084
3.9693586e-06
-0.00025070502
2.9228955e-06
-3.1666856e-05
-2.8093344e-06
-6.9117104e-05
-6.9186781e-06
-8.9362172e-05
-1.0384836e-05
-0.00010100191
-1.3300317e-05
-0.00010838193
-1.5382188e-05
-0.00011329458
-1.7484344e-05
-0.0001162508
-1.9703231e-05
-0.00011797295
-2.1551164e-05
-0.00011850725
-2.471412e-05
-0.00011796667
-2.6994447e-05
-0.00011671306
-3.0604478e-05
-0.00011374611
-3.3242675e-05
-0.00010879317
-3.452779e-05
-9.8661242e-05
-3.5346565e-05
-5.744078e-05
1.7853338e-05
-6.0222645e-05
5.451636e-05
-6.1262038e-05
5.1140856e-05
-5.6714385e-05
2.6400952e-05
-4.7771385e-05
-3.0668399e-06
-3.6020606e-05
-2.7898508e-05
-2.3567923e-05
-4.4873738e-05
-1.0480586e-05
-5.3757015e-05
4.2220013e-07
-5.8523347e-05
1.1563419e-05
-6.2347182e-05
2.195851e-05
-6.6835162e-05
3.232998e-05
-7.1570133e-05
4.2260396e-05
-7.51611e-05
5.11907e-05
-7.651949e-05
-8.2094194e-05
5.8617463e-05
-7.5284855e-05
-6.5119215e-05
-2.0859265e-05
-0.00014965848
-9.0017408e-06
-0.00021751864
-1.0648815e-06
-0.0002505646
2.2503573e-06
-0.00024865285
1.9171893e-06
-0.00022691676
4.8960046e-07
-2.8618036e-05
-3.04882e-06
-6.4399495e-05
-7.5269432e-06
-8.4806204e-05
-1.1474646e-05
-9.6987722e-05
-1.4399025e-05
-0.00010484706
-1.6835185e-05
-0.00010997981
-1.8696962e-05
-0.00011329372
-2.0441429e-05
-0.00011499889
-2.2677293e-05
-0.00011557337
-2.4485045e-05
-0.00011524374
-2.7437049e-05
-0.00011385055
-2.9856963e-05
-0.0001116398
-3.2710786e-05
-0.00010725825
-3.4777593e-05
-9.9392931e-05
-3.3796101e-05
-8.5395392e-05
-3.2045367e-05
-6.4847665e-05
-5.7712332e-05
-6.1578123e-05
1.9208816e-05
-6.2857415e-05
5.6111736e-05
-6.1396282e-05
5.5822753e-05
-5.6614742e-05
3.5244309e-05
-4.8298932e-05
9.2114855e-06
-3.7773025e-05
-1.3693406e-05
-2.609595e-05
-2.9258374e-05
-1.5267813e-05
-3.8067002e-05
-4.8584585e-06
-4.210147e-05
4.1081594e-06
-4.4496832e-05
1.2640952e-05
-4.7146134e-05
2.089324e-05
-5.0202978e-05
2.8795178e-05
-5.2765579e-05
3.5953701e-05
-5.3855728e-05
-6.4231301e-05
4.1880015e-05
-5.2933568e-05
-0.00015855456
-1.1963177e-05
-0.00022301353
-3.5068568e-06
-0.00025201149
3.8200875e-07
-0.00024715525
7.5275453e-07
-0.00022493719
-6.2383586e-08
-0.00019935668
-7.6334955e-07
-2.5501698e-05
-3.116338e-06
-5.9553787e-05
-7.8945277e-06
-8.0189348e-05
-1.21438e-05
-9.2962201e-05
-1.5500168e-05
-0.00010136552
-1.7880568e-05
-0.00010696023
-1.9854759e-05
-0.0001104104
-2.1580277e-05
-0.00011235659
-2.3083729e-05
-0.00011301434
-2.5236327e-05
-0.00011263619
-2.7092599e-05
-0.00011153155
-2.9756049e-05
-0.0001093587
-3.2138056e-05
-0.0001059103
-3.4058745e-05
-9.9478052e-05
-3.4692472e-05
-8.7842649e-05
-3.1348844e-05
-6.9763582e-05
-2.6513087e-05
-8.0357343e-05
-0.00014304489
-6.8738642e-05
-5.0551813e-05
-6.4116355e-05
2.0467756e-05
-6.1094727e-05
5.5810181e-05
-5.8492741e-05
5.7700753e-05
-5.3598982e-05
4.0544359e-05
-4.6263206e-05
1.7701667e-05
-3.7077628e-05
-2.7117282e-06
-2.7199006e-05
-1.7327182e-05
-1.7375108e-05
-2.5550352e-05
-8.753867e-06
-2.9239444e-05
-1.1315978e-06
-3.0724282e-05
5.612412e-06
-3.1865305e-05
1.186732e-05
-3.3275119e-05
1.7730452e-05
-3.454233e-05
2.2957919e-05
-3.4933633e-05
-4.615062e-05
2.7149756e-05
-3.3932705e-05
-0.00022898578
-5.990926e-06
-0.00025398276
-1.5355844e-06
-0.00024631668
-4.5655419e-07
-0.00022341947
-7.6495855e-07
-0.00019843378
-9.8528493e-07
-0.00016671236
-1.1628496e-06
-2.2475604e-05
-3.026094e-06
-5.4739116e-05
-7.9310096e-06
-7.5554795e-05
-1.2529081e-05
-8.8980297e-05
-1.6125703e-05
-9.7984406e-05
-1.8881279e-05
-0.00010399554
-2.0845266e-05
-0.00010783534
-2.2429819e-05
-0.00010990576
-2.40311e-05
-0.00011068457
-2.5413496e-05
-0.00011044932
-2.7423201e-05
-0.00010929155
-2.9332594e-05
-0.00010744714
-3.1667616e-05
-0.000104391
-3.3657353e-05
-9.9188676e-05
-3.4348122e-05
-8.9792581e-05
-3.2742541e-05
-7.3998299e-05
-2.7114127e-05
-5.2781566e-05
-1.9882141e-05
-9.8271646e-05
-0.00021107147
-8.3412678e-05
-0.00012837085
-7.1629749e-05
-4.3038419e-05
-6.2060392e-05
2.1433422e-05
-5.7006359e-05
5.4323799e-05
-5.3155999e-05
5.725777e-05
-4.8630677e-05
4.2911829e-05
-4.2473968e-05
2.3098006e-05
-3.4875326e-05
4.9645921e-06
-2.6503475e-05
-8.1988155e-06
-1.8345174e-05
-1.5959046e-05
-1.0961415e-05
-1.9409627e-05
-4.7307774e-06
-2.0381093e-05
5.2890449e-07
-2.052689e-05
5.1395227e-06
-2.068419e-05
9.2493263e-06
-2.0833737e-05
1.2772239e-05
-2.0556116e-05
-2.9870526e-05
1.5420009e-05
-1.9482188e-05
-0.00025653717
-3.4365162e-06
-0.00024611417
-1.7380963e-06
-0.00022240162
-1.4744073e-06
-0.00019790976
-1.288978e-06
-0.00016651368
-1.1839731e-06
-0.00011471249
-8.5070613e-07
-1.9680563e-05
-2.7950406e-06
-5.0090493e-05
-7.6747172e-06
-7.1008908e-05
-1.2476896e-05
-8.5043582e-05
-1.6465797e-05
-9.467198e-05
-1.9438128e-05
-0.00010120583
-2.1670984e-05
-0.00010535453
-2.3326078e-05
-0.00010771648
-2.4619099e-05
-0.00010863381
-2.6081856e-05
-0.00010844086
-2.7421955e-05
-0.00010743689
-2.9277861e-05
-0.00010561982
-3.1159916e-05
-0.00010297601
-3.3082599e-05
-9.8660002e-05
-3.4186027e-05
-9.0962647e-05
-3.3178055e-05
-7.7791512e-05
-2.8949328e-05
-5.8379097e-05
-2.1516596e-05
-3.628917e-05
-1.3463497e-05
-0.00011203285
-0.00024277597
-0.00010165137
-0.00019283278
-8.6105432e-05
-0.00011389517
-7.027928e-05
-3.4819531e-05
-5.8433426e-05
2.2860489e-05
-5.0762047e-05
5.1929847e-05
-4.6430857e-05
5.505795e-05
-4.2539891e-05
4.2977752e-05
-3.7649878e-05
2.5872558e-05
-3.158846e-05
1.0049576e-05
-2.4850078e-05
-1.6939112e-06
-1.812357e-05
-8.7968908e-06
-1.207698e-05
-1.2063424e-05
-7.0220834e-06
-1.2830105e-05
-2.932225e-06
-1.2455143e-05
4.1437287e-07
-1.1849236e-05
3.2169479e-06
-1.1278447e-05
5.4505316e-06
-1.0586639e-05
-1.683717e-05
6.9450121e-06
-9.5900308e-06
-0.0002465385
-3.0121937e-06
-0.00022199255
-2.1471632e-06
-0.00019776527
-1.6188965e-06
-0.00016656617
-1.2364854e-06
-0.00011498531
-9.1116175e-07
-3.9751871e-05
-1.7221099e-05
-2.4594641e-06
-4.5745076e-05
-7.1404569e-06
-6.6622889e-05
-1.2060737e-05
-8.1209279e-05
-1.63112e-05
-9.1446796e-05
-1.9690981e-05
-9.8488317e-05
-2.2155642e-05
-0.00010307203
-2.3953489e-05
-0.0001056819
-2.5360665e-05
-0.00010679576
-2.6457149e-05
-0.00010674398
-2.7778734e-05
-0.00010575584
-2.910301e-05
-0.0001040824
-3.0815274e-05
-0.0001016268
-3.250913e-05
-9.7955837e-05
-3.3786764e-05
-9.1702787e-05
-3.3445888e-05
-8.0703933e-05
-3.0265635e-05
-6.3632817e-05
-2.3695607e-05
-4.2319452e-05
-1.5486315e-05
-2.2135197e-05
-8.1654702e-06
-0.00011879132
-0.00023978003
-0.00011645994
-0.00022796741
-0.00010288829
-0.00017604992
-8.5356267e-05
-9.8818182e-05
-6.6892446e-05
-2.6360511e-05
-5.2147342e-05
2.4245784e-05
-4.3486176e-05
4.8985166e-05
-3.9114172e-05
5.1632231e-05
-3.5994907e-05
4.1322781e-05
-3.2376491e-05
2.6660589e-05
-2.77837e-05
1.2983198e-05
-2.2520779e-05
2.7032979e-06
-1.7182919e-05
-3.6909524e-06
-1.2335096e-05
-6.7504114e-06
-8.3017486e-06
-7.4605817e-06
-5.1240016e-06
-6.9167682e-06
-2.6534877e-06
-5.9788009e-06
-7.4836257e-07
-5.0795528e-06
6.3147347e-07
-4.2731e-06
-7.4813707e-06
1.4244411e-06
-3.5331015e-06
-0.00022218233
-2.8224229e-06
-0.00019802107
-1.8913583e-06
-0.00016684298
-1.3420816e-06
-0.00011532036
-9.0143353e-07
-4.0663033e-05
-1.5169382e-05
-2.0517177e-06
-4.1810373e-05
-6.3941674e-06
-6.2489427e-05
-1.1273919e-05
-7.7511501e-05
-1.5758514e-05
-8.8316381e-05
-1.9441615e-05
-9.588677e-05
-2.2292528e-05
-0.00010087662
-2.4351047e-05
-0.00010383365
-2.5801734e-05
-0.00010516151
-2.6994917e-05
-0.000105237
-2.7964125e-05
-0.00010437054
-2.9164032e-05
-0.00010272915
-3.0456266e-05
-0.00010044265
-3.1999424e-05
-9.7207296e-05
-3.3257671e-05
-9.2026612e-05
-3.346294e-05
-8.2979874e-05
-3.1169947e-05
-6.8200675e-05
-2.5697777e-05
-4.8265625e-05
-1.7749435e-05
-2.7593153e-05
-1.0028359e-05
-1.1339396e-05
-4.3074449e-06
-0.00012001275
-0.00022096089
-0.00012478171
-0.00023145825
-0.00011632217
-0.00021453353
-0.0001036354
-0.00015777079
-8.2177758e-05
-8.353287e-05
-6.0820222e-05
-1.7687632e-05
-4.4727835e-05
2.5487443e-05
-3.5782689e-05
4.5653684e-05
-3.1770737e-05
4.740806e-05
-2.9543792e-05
3.8490082e-05
-2.7099143e-05
2.5976032e-05
-2.3818586e-05
1.4281005e-05
-1.987685e-05
5.3972285e-06
-1.5768379e-05
-2.5766953e-07
-1.1985406e-05
-3.0667541e-06
-8.8132695e-06
-3.7713138e-06
-6.3217717e-06
-3.2484842e-06
-4.4382195e-06
-2.288944e-06
-3.0639429e-06
-1.3841365e-06
-2.1542191e-06
-6.9443991e-07
-1.4349703e-06
-1.7721255e-06
-3.260058e-07
-0.00019880284
-2.0406561e-06
-0.00016726315
-1.4711888e-06
-0.00011582395
-8.3849147e-07
-4.1564467e-05
-1.3578954e-05
-1.5904274e-06
-3.8371859e-05
-5.4902318e-06
-5.8683666e-05
-1.0199929e-05
-7.4009247e-05
-1.4776173e-05
-8.5304545e-05
-1.877035e-05
-9.3368049e-05
-2.1960336e-05
-9.8806898e-05
-2.4362252e-05
-0.00010209789
-2.6086802e-05
-0.00010369401
-2.7269233e-05
-0.00010395438
-2.8277539e-05
-0.00010317694
-2.9157726e-05
-0.00010162982
-3.0263355e-05
-9.9425006e-05
-3.1473912e-05
-9.6485134e-05
-3.2721586e-05
-9.2101973e-05
-3.3182311e-05
-8.4665528e-05
-3.1777285e-05
-7.2098021e-05
-2.7272601e-05
-5.3919721e-05
-2.0043681e-05
-3.3281487e-05
-1.2061101e-05
-1.5610956e-05
-5.7567992e-06
-3.9607678e-06
-1.7816476e-06
-0.0001154145
-0.00020340109
-0.00012894066
-0.00021680194
-0.00012355484
-0.00022422558
-0.000119218
-0.00019895093
-0.00010050399
-0.00013944455
-7.6463073e-05
-6.7890019e-05
-5.2665819e-05
-9.7496474e-06
-3.6568238e-05
2.6272992e-05
-2.8106904e-05
4.1989852e-05
-2.4875637e-05
4.2739905e-05
-2.3541586e-05
3.4932525e-05
-2.2131225e-05
2.4288671e-05
-1.9966235e-05
1.4370389e-05
-1.715019e-05
6.7790399e-06
-1.4098536e-05
1.8554601e-06
-1.1213986e-05
-6.6603742e-07
-8.7350843e-06
-1.3580013e-06
-6.7367351e-06
-9.4996863e-07
-5.2055518e-06
-1.4733528e-07
-4.101424e-06
5.6306828e-07
-3.4156883e-06
9.4912272e-07
1.8745608e-06
-3.1390123e-06
9.3844547e-07
-0.00016799978
-1.3040316e-06
-0.00011651691
-7.7823218e-07
-4.2402959e-05
-1.2478389e-05
-1.100565e-06
-3.548887e-05
-4.4734165e-06
-5.5276492e-05
-8.8974053e-06
-7.0751028e-05
-1.3458148e-05
-8.2441644e-05
-1.7639074e-05
-9.0956635e-05
-2.1181764e-05
-9.6814335e-05
-2.3952899e-05
-0.00010048213
-2.5978018e-05
-0.00010236075
-2.7420061e-05
-0.00010282882
-2.8394793e-05
-0.00010220336
-2.9251113e-05
-0.00010072846
-3.0059087e-05
-9.8610773e-05
-3.1077587e-05
-9.5851337e-05
-3.2107709e-05
-9.203653e-05
-3.2787029e-05
-8.5875153e-05
-3.1972686e-05
-7.5349925e-05
-2.8525381e-05
-5.9134075e-05
-2.2058246e-05
-3.910783e-05
-1.4217337e-05
-2.0304347e-05
-7.3677094e-06
-6.9062669e-06
-2.8113001e-06
4.750713e-07
-3.8215813e-07
-9.9792583e-05
-0.0001836217
-0.00013113217
-0.00020120958
-0.00012629837
-0.00021405842
-0.00012834621
-0.00021509736
-0.00011680124
-0.00018265369
-9.6214097e-05
-0.00011969353
-6.7516147e-05
-5.3039691e-05
-4.3659734e-05
-2.6581512e-06
-2.8152584e-05
2.6318672e-05
-2.0998713e-05
3.8112927e-05
-1.8696902e-05
3.7895222e-05
-1.8205617e-05
3.1006917e-05
-1.7656497e-05
2.1978934e-05
-1.6400457e-05
1.3620656e-05
-1.4508986e-05
7.1894902e-06
-1.2323886e-05
2.9653595e-06
-1.0154628e-05
7.535062e-07
-8.1867293e-06
9.1992887e-08
-6.5074416e-06
3.5192118e-07
-5.1602203e-06
9.1146096e-07
-4.1683442e-06
1.3157241e-06
-3.53553e-06
1.3456403e-06
3.1775094e-06
-3.2119686e-06
9.7290454e-07
-0.0001174024
-4.1853604e-07
-4.3181191e-05
-1.1789022e-05
-6.8936735e-07
-3.3181957e-05
-3.4074779e-06
-5.230882e-05
-7.4410887e-06
-6.778903e-05
-1.1859404e-05
-7.9760984e-05
-1.6138807e-05
-8.865872e-05
-1.9936988e-05
-9.4917839e-05
-2.307826e-05
-9.894428e-05
-2.5490748e-05
-0.00010113713
-2.7201645e-05
-0.00010184649
-2.840239e-05
-0.00010138707
-2.9211089e-05
-0.00010003239
-2.9947185e-05
-9.7983803e-05
-3.0686057e-05
-9.5356386e-05
-3.1572538e-05
-9.1917064e-05
-3.2227175e-05
-8.6745148e-05
-3.1917035e-05
-7.7982282e-05
-2.9340329e-05
-6.3846014e-05
-2.3813443e-05
-4.4901095e-05
-1.6264982e-05
-2.5422015e-05
-9.0996696e-06
-1.0307619e-05
-3.9663575e-06
-1.2781042e-06
-1.0581247e-06
2.6296102e-06
1.6574107e-07
-6.8195461e-05
-0.00014899952
-0.00012730802
-0.00018744585
-0.00012790533
-0.00019960262
-0.00013240451
-0.00021000012
-0.00012717809
-0.00020472051
-0.000114975
-0.00016389279
-8.724204e-05
-9.9967633e-05
-5.767279e-05
-3.9026635e-05
-3.3868191e-05
3.0574556e-06
-2.0390216e-05
2.5710175e-05
-1.4685688e-05
3.4101713e-05
-1.339174e-05
3.3081346e-05
-1.3631651e-05
2.6982071e-05
-1.3760834e-05
1.9339311e-05
-1.3215054e-05
1.2326724e-05
-1.2051506e-05
6.9171102e-06
-1.0533509e-05
3.3442406e-06
-8.8855256e-06
1.4523026e-06
-7.2519695e-06
8.365208e-07
-5.7491666e-06
9.4086749e-07
-4.4807456e-06
1.2238624e-06
-3.5217854e-06
1.3019795e-06
-2.8804295e-06
1.0141011e-06
2.9294398e-06
-2.395511e-06
4.3897562e-07
-4.3599727e-05
-1.1234417e-05
-5.5460524e-07
-3.1424218e-05
-2.4471063e-06
-4.9782378e-05
-5.9339205e-06
-6.5149375e-05
-1.0080743e-05
-7.729648e-05
-1.4323908e-05
-8.6499393e-05
-1.8298135e-05
-9.3108972e-05
-2.1745855e-05
-9.7489081e-05
-2.4533459e-05
-9.9992711e-05
-2.6635164e-05
-0.0001009662
-2.8081938e-05
-0.00010071252
-2.9076934e-05
-9.9494761e-05
-2.9748721e-05
-9.7545351e-05
-3.0385637e-05
-9.500837e-05
-3.1034073e-05
-9.1831627e-05
-3.1657975e-05
-8.7371459e-05
-3.1600864e-05
-8.0096679e-05
-2.9802638e-05
-6.7979594e-05
-2.5206749e-05
-5.0534288e-05
-1.818025e-05
-3.0872673e-05
-1.0814324e-05
-1.42209e-05
-5.186389e-06
-3.451829e-06
-1.7926327e-06
1.7751634e-06
-2.0367803e-07
2.9227054e-06
1.724754e-07
-2.2029099e-05
-8.9766089e-05
-0.00011036864
-0.00016593891
-0.00012887158
-0.00018647961
-0.00013459789
-0.00019740924
-0.00013188069
-0.00020529752
-0.00012804217
-0.00019165333
-0.00010770511
-0.00014342972
-7.732773e-05
-8.0312693e-05
-4.6002531e-05
-2.6892295e-05
-2.4647899e-05
7.3151382e-06
-1.3404562e-05
2.4429049e-05
-9.3580501e-06
3.0068023e-05
-9.0009985e-06
2.8450693e-05
-9.8257668e-06
2.3047004e-05
-1.0458774e-05
1.6583031e-05
-1.04424e-05
1.0717619e-05
-9.8175192e-06
6.2011203e-06
-8.7647686e-06
3.2234836e-06
-7.4407291e-06
1.6410622e-06
-5.9886091e-06
1.0759633e-06
-4.5739145e-06
1.0340363e-06
-3.3589388e-06
1.0610157e-06
-2.4459212e-06
8.6747116e-07
-1.790221e-06
4.0881094e-07
1.4319595e-06
-9.9298398e-07
-1.3191172e-05
1.9567549e-06
-3.029081e-05
-1.6880135e-06
-4.7710942e-05
-4.5185417e-06
-6.2842847e-05
-8.2404486e-06
-7.5069373e-05
-1.2307851e-05
-8.4498415e-05
-1.6324886e-05
-9.1406584e-05
-2.0000523e-05
-9.610319e-05
-2.3131747e-05
-9.8917127e-05
-2.5609042e-05
-0.00010016286
-2.7438503e-05
-0.00010013554
-2.8658922e-05
-9.9093573e-05
-2.9478122e-05
-9.7259287e-05
-3.0034784e-05
-9.4821509e-05
-3.0572499e-05
-9.1813907e-05
-3.1051793e-05
-8.7872661e-05
-3.1156772e-05
-8.1774017e-05
-2.9923526e-05
-7.153808e-05
-2.6244152e-05
-5.5853818e-05
-1.9887219e-05
-3.6555021e-05
-1.2497902e-05
-1.8636717e-05
-6.3985063e-06
-6.0966433e-06
-2.5415747e-06
5.8035683e-07
-5.9782613e-07
2.680157e-06
3.8870299e-08
1.6044349e-06
-1.9220566e-05
-2.8085333e-06
-7.1530279e-05
-0.00012860445
-0.0001247822
-0.00017002829
-0.00013511549
-0.000185962
-0.00013486369
-0.00019442624
-0.00013427286
-0.00019906682
-0.0001239679
-0.00017539054
-9.9112827e-05
-0.00012164463
-6.4316212e-05
-6.1999012e-05
-3.4836616e-05
-1.6703578e-05
-1.6154909e-05
1.0065485e-05
-7.550529e-06
2.2621528e-05
-5.0530326e-06
2.6120057e-05
-5.4817772e-06
2.4106703e-05
-6.7355361e-06
1.9323766e-05
-7.7175773e-06
1.3858207e-05
-8.0673198e-06
8.9674192e-06
-7.7955919e-06
5.2319437e-06
-7.0112952e-06
2.7940497e-06
-5.8455621e-06
1.4980152e-06
-4.4819817e-06
9.8403059e-07
-3.1470424e-06
8.2213994e-07
-2.0414448e-06
6.5653931e-07
-1.2479846e-06
3.2523473e-07
-5.8417307e-07
-3.2031871e-05
3.8127099e-05
-2.9953126e-05
1.6190712e-06
-4.6360893e-05
-3.0380632e-06
-6.0933847e-05
-6.4275415e-06
-7.3110697e-05
-1.0199124e-05
-8.2679458e-05
-1.4126808e-05
-8.9821919e-05
-1.7909552e-05
-9.4798404e-05
-2.1305308e-05
-9.7896558e-05
-2.4152317e-05
-9.9415858e-05
-2.6356048e-05
-9.9630083e-05
-2.794396e-05
-9.8785653e-05
-2.8966841e-05
-9.7103923e-05
-2.9633487e-05
-9.4770502e-05
-3.0085791e-05
-9.1903439e-05
-3.0482967e-05
-8.831355e-05
-3.0610905e-05
-8.313056e-05
-2.9800229e-05
-7.4542248e-05
-2.6919358e-05
-6.075058e-05
-2.134739e-05
-4.2318752e-05
-1.4123487e-05
-2.3525299e-05
-7.6093207e-06
-9.2309919e-06
-3.2641577e-06
-9.8871505e-07
-9.7250286e-07
2.1758367e-06
-9.3505902e-08
1.6433051e-06
-2.3516963e-05
4.2963965e-06
-7.4929639e-05
5.9082579e-07
-0.00010565142
-0.00014773523
-0.0001324806
-0.00017266318
-0.00013760707
-0.00018321863
-0.00013686678
-0.00019183233
-0.00013332929
-0.00018970543
-0.00011821382
-0.00015628955
-8.6552903e-05
-9.9407935e-05
-5.1226442e-05
-4.5609185e-05
-2.4089578e-05
-8.7689083e-06
-9.0368478e-06
1.1551804e-05
-2.8833892e-06
2.0451885e-05
-1.7118894e-06
2.2350169e-05
-2.7388179e-06
2.0109985e-05
-4.276877e-06
1.5883066e-05
-5.4732649e-06
1.1264153e-05
-6.0350822e-06
7.2069096e-06
-5.9376636e-06
4.1583121e-06
-5.2559227e-06
2.2044104e-06
-4.150707e-06
1.1667406e-06
-2.8722532e-06
7.0924139e-07
-1.6960033e-06
4.766985e-07
-8.2205616e-07
2.3061088e-07
-2.5893837e-07
-4.9080367e-05
7.2546095e-05
-4.7237424e-05
5.5411397e-05
-4.496573e-05
2.2390878e-07
-5.9591626e-05
-4.3802848e-06
-7.1497893e-05
-8.0403456e-06
-8.1083455e-05
-1.1795128e-05
-8.838121e-05
-1.5567516e-05
-9.3582223e-05
-1.9125733e-05
-9.6935929e-05
-2.2265936e-05
-9.8710952e-05
-2.4857223e-05
-9.9169658e-05
-2.6816473e-05
-9.8543071e-05
-2.8186542e-05
-9.7036066e-05
-2.9034698e-05
-9.4840401e-05
-2.9563587e-05
-9.2092872e-05
-2.9896359e-05
-8.8761773e-05
-3.0034744e-05
-8.4254518e-05
-2.9486947e-05
-7.7060477e-05
-2.7282e-05
-6.5147918e-05
-2.2522021e-05
-4.8004363e-05
-1.5661779e-05
-2.8812642e-05
-8.8361442e-06
-1.2865929e-05
-3.9743841e-06
-2.9414956e-06
-1.3113771e-06
1.4110513e-06
-2.0771743e-07
1.5497992e-06
-2.4644547e-05
1.1275848e-06
-7.6365241e-05
5.7319991e-06
-0.00010757142
2.5108321e-06
-0.00012430964
-0.0001559062
-0.00013772758
-0.00017254266
-0.00013918548
-0.00018089993
-0.00013756917
-0.00018759245
-0.00013082409
-0.00017709517
-0.00010841158
-0.00013443087
-7.2554389e-05
-7.8079987e-05
-3.789834e-05
-3.1800423e-05
-1.4856907e-05
-2.9488488e-06
-3.3478413e-06
1.2016256e-05
6.2181897e-07
1.8118177e-05
7.7437422e-07
1.8836977e-05
-6.4911344e-07
1.6482221e-05
-2.3512179e-06
1.2761019e-05
-3.6374709e-06
8.8665413e-06
-4.2631778e-06
5.5324238e-06
-4.1885217e-06
3.0909112e-06
-3.5131342e-06
1.5668377e-06
-2.4690709e-06
7.6355832e-07
-1.3687037e-06
3.8194175e-07
-5.0154109e-07
1.5618344e-07
-2.832749e-08
-6.1020339e-05
0.00010049997
-6.0861118e-05
8.6169789e-05
-5.869081e-05
6.9136476e-05
-5.7910911e-05
-1.4568053e-06
-7.0221217e-05
-5.6569609e-06
-7.9759781e-05
-9.3640188e-06
-8.7120488e-05
-1.305585e-05
-9.2479691e-05
-1.6670048e-05
-9.6040985e-05
-2.0020678e-05
-9.80472e-05
-2.2929688e-05
-9.8738992e-05
-2.5287889e-05
-9.8334745e-05
-2.7024799e-05
-9.7027362e-05
-2.8195246e-05
-9.4989418e-05
-2.8885682e-05
-9.237958e-05
-2.9276879e-05
-8.9240429e-05
-2.9417702e-05
-8.5234733e-05
-2.9054529e-05
-7.9167832e-05
-2.7379592e-05
-6.902273e-05
-2.3407188e-05
-5.3458923e-05
-1.706746e-05
-3.4388242e-05
-1.0086179e-05
-1.6996645e-05
-4.7054281e-06
-5.286797e-06
-1.6290828e-06
4.0068041e-07
-3.0100622e-07
1.3420818e-06
-2.7608312e-05
2.9637646e-06
-7.7401026e-05
2.1633699e-06
-0.00010678867
4.9492454e-06
-0.00012488596
3.0871524e-06
-0.00013416137
-0.00015947241
-0.00014074736
-0.00017098078
-0.00014037221
-0.00017809689
-0.00013701408
-0.00018140246
-0.00012516705
-0.0001603397
-9.5655792e-05
-0.00011132946
-5.7331323e-05
-5.8647004e-05
-2.5830381e-05
-2.0826949e-05
-7.2806796e-06
9.8398948e-07
9.2447806e-07
1.1713597e-05
3.2278985e-06
1.5664653e-05
2.6058137e-06
1.558205e-05
8.9229584e-07
1.3238708e-05
-8.4526891e-07
9.968817e-06
-2.1057478e-06
6.7091115e-06
-2.6680819e-06
4.0119841e-06
-2.5305314e-06
2.1083085e-06
-1.8684627e-06
9.6622956e-07
-9.8999217e-07
3.8484691e-07
-2.3550181e-07
1.1590252e-07
1.2785596e-07