/*--------------------------------*- C++ -*----------------------------------*\
| =========                 |                                                 |
| \\      /  F ield         | OpenFOAM: The Open Source CFD Toolbox           |
|  \\    /   O peration     | Version:  2206                                  |
|   \\  /    A nd           | Website:  www.openfoam.com                      |
|    \\/     M anipulation  |                                                 |
\*---------------------------------------------------------------------------*/
FoamFile
{
    version     2.0;
    format      ascii;
    arch        "LSB;label=32;scalar=64";
    class       volVectorField;
    location    "0";
    object      U;
}
// * * * * * * * * * * * * * * * * * * * * * * * * * * * * * * * * * * * * * //

dimensions      [0 1 -1 0 0 0 0];

internalField   uniform (0 0 0);

boundaryField
{
    top
    {
        type            noSlip;
    }
    bottom
    {
        type            noSlip;
    }
    inlet
    {
        type            fixedValue;
        value           nonuniform List<vector> 
25
(
(0.1176 0 0)
(0.3384 0 0)
(0.54 0 0)
(0.7224 0 0)
(0.8856 0 0)
(1.0296 0 0)
(1.1544 0 0)
(1.26 0 0)
(1.3464 0 0)
(1.4136 0 0)
(1.4616 0 0)
(1.4904 0 0)
(1.5 0 0)
(1.4904 0 0)
(1.4616 0 0)
(1.4136 0 0)
(1.3464 0 0)
(1.26 0 0)
(1.1544 0 0)
(1.0296 0 0)
(0.8856 0 0)
(0.7224 0 0)
(0.54 0 0)
(0.3384 0 0)
(0.1176 0 0)
)
;
    }
    outlet
    {
        type            zeroGradient;
    }
    back
    {
        type            empty;
    }
    front
    {
        type            empty;
    }
    cylinder
    {
        type            agentRotatingWallVelocity;
        origin          (0.2 0.2 0);
        axis            (0 0 1);
        policy          policy.pt;
        startTime       4;
        interval        20;
        train           1;
        absOmegaMax     0.05;
        seed            0;
    }
    procBoundary0to1
    {
        type            processor;
        value           uniform (0 0 0);
    }
}


// ************************************************************************* //
