/*--------------------------------*- C++ -*----------------------------------*\
| =========                 |                                                 |
| \\      /  F ield         | OpenFOAM: The Open Source CFD Toolbox           |
|  \\    /   O peration     | Version:  2206                                  |
|   \\  /    A nd           | Website:  www.openfoam.com                      |
|    \\/     M anipulation  |                                                 |
\*---------------------------------------------------------------------------*/
FoamFile
{
    version     2.0;
    format      ascii;
    arch        "LSB;label=32;scalar=64";
    class       volVectorField;
    location    "4";
    object      U;
}
// * * * * * * * * * * * * * * * * * * * * * * * * * * * * * * * * * * * * * //

dimensions      [0 1 -1 0 0 0 0];

internalField   nonuniform List<vector> 
2662
(
(0.14422634 0.013277539 0)
(0.16684488 0.013695019 0)
(0.4996625 0.079569736 0)
(0.19007513 0.013570472 0)
(0.53861743 0.084322906 0)
(0.8731585 0.17063946 0)
(0.21446797 0.01232656 0)
(0.57929003 0.087706958 0)
(0.92010627 0.17911091 0)
(1.1691612 0.26911167 0)
(0.24055553 0.010285869 0)
(0.62010966 0.089658721 0)
(0.96656595 0.18446076 0)
(1.2130653 0.27466513 0)
(1.362239 0.35288238 0)
(0.26165431 0.0088720044 0)
(0.65728828 0.091061743 0)
(1.0099762 0.18683335 0)
(1.2543417 0.2754701 0)
(1.4086354 0.35655762 0)
(1.5582772 0.46362387 0)
(0.25430414 0.004675007 0)
(0.68835412 0.092821872 0)
(1.0484505 0.18664809 0)
(1.2913726 0.27219955 0)
(1.4536437 0.35596451 0)
(1.6230893 0.47141235 0)
(1.7732371 0.61410685 0)
(0.39549043 -0.026070139 1.8321873e-19)
(0.72402319 0.092267067 0)
(1.0846734 0.1836301 0)
(1.3237768 0.2656761 0)
(1.4954218 0.35174576 0)
(1.6852617 0.47245341 0)
(1.841668 0.61601594 0)
(1.8700157 0.74022272 0)
(0.13597716 -0.027849236 -7.761276e-20)
(0.8608031 0.083773856 -1.0822886e-19)
(0.83365459 0.051180918 6.3519425e-20)
(1.1285833 0.17649534 0)
(1.3542148 0.25647145 0)
(1.533338 0.34450889 0)
(1.7417993 0.46679934 0)
(1.9011613 0.60710029 0)
(1.9118005 0.72433177 0)
(1.7768037 0.80264021 0)
(0.24606003 0.023901222 0)
(0.51352294 0.01547511 -7.0381345e-22)
(1.2229038 0.16655093 6.0076984e-22)
(1.2497332 0.15380491 -3.221449e-20)
(1.1765267 0.11751962 -4.4851584e-21)
(1.3883529 0.24499911 0)
(1.5698403 0.33442995 0)
(1.7920212 0.45471723 0)
(1.9492128 0.58793076 0)
(1.9404827 0.69516052 0)
(1.7834824 0.76214099 0)
(1.5356864 0.78433308 0)
(0.26191206 0.01541312 8.1051719e-20)
(0.7656258 0.074984202 -5.8858351e-21)
(0.89661882 0.06800328 -7.9579537e-20)
(1.4517697 0.2313943 0)
(1.514064 0.21933098 -3.3281095e-20)
(1.4383371 0.17083174 1.7974859e-20)
(1.3958103 0.13495919 5.0087745e-21)
(1.6112712 0.32096898 0)
(1.839284 0.43637764 0)
(1.986178 0.55944412 0)
(1.9555487 0.6543053 0)
(1.7771511 0.70780074 0)
(1.511011 0.72250737 0)
(1.1804924 0.72387644 0)
(0.28739571 0.0128938 -8.464334e-20)
(0.72259281 0.025109441 -1.0962662e-19)
(1.1521449 0.1121684 9.1515369e-20)
(1.1897516 0.10637816 1.9568186e-22)
(1.6856647 0.30047842 1.0258679e-19)
(1.6759829 0.264432 0)
(1.5840842 0.19974781 -2.0552392e-20)
(1.5715238 0.15897525 3.6827634e-21)
(1.5474484 0.12788345 0)
(1.890472 0.41183817 0)
(2.015995 0.52282451 0)
(1.9586725 0.60350888 0)
(1.7583252 0.64200292 0)
(1.4760664 0.64722875 0)
(1.1342221 0.64322933 0)
(0.79812142 0.61342762 0)
(0.3137752 0.0137944 0)
(0.79084057 0.037509487 1.1397846e-19)
(1.0446335 0.04935586 -1.2824539e-19)
(1.3793477 0.10423675 0)
(1.3907022 0.11686923 -1.0271381e-19)
(1.9696238 0.37510658 -3.2781708e-19)
(1.9254241 0.31479624 0)
(1.7672181 0.22876877 0)
(1.7252207 0.18477754 0)
(1.6869033 0.1432261 -3.5311253e-20)
(1.6652906 0.10929417 0)
(2.0450795 0.47985367 0)
(1.9538148 0.54491266 0)
(1.7292975 0.56725026 0)
(1.4318552 0.5612909 0)
(1.0801593 0.55019941 0)
(0.73054951 0.51970114 0)
(0.33411932 0.013125858 0)
(0.80412926 0.025055636 0)
(1.1370182 0.067445346 1.2997114e-19)
(1.2602503 0.05543249 0)
(1.5196383 0.079653733 9.9102109e-20)
(1.5390678 0.10652957 0)
(2.0848785 0.42145924 4.0762319e-19)
(2.1322603 0.35734633 1.4672584e-19)
(2.0211709 0.25900888 0)
(1.9535365 0.20894253 1.8039364e-19)
(1.8463633 0.15719866 3.4598479e-20)
(1.7885108 0.11534815 -6.1126899e-21)
(1.7624362 0.082328492 0)
(1.9462715 0.48142885 0)
(1.6937472 0.48642666 0)
(1.3806274 0.46773975 0)
(1.0193326 0.44777631 0)
(0.65822826 0.41498902 0)
(0.3500961 0.35221846 0)
(0.35099138 0.011693669 0)
(0.82485793 0.020497209 1.7914996e-19)
(1.0983941 0.032115478 0)
(1.3427702 0.05876832 -1.6013377e-19)
(1.4146411 0.052671975 0)
(1.6259532 0.051939583 0)
(1.6609369 0.08473412 0)
(1.9327228 0.39917465 6.1839718e-20)
(2.053347 0.35170967 -1.6343786e-19)
(2.0865611 0.26747595 9.1964681e-21)
(2.1246616 0.22087158 -1.9215357e-19)
(2.0392189 0.15928927 1.0458837e-20)
(1.9567527 0.11458289 0)
(1.887065 0.07868652 6.8273783e-21)
(1.8479925 0.049395553 0)
(1.6556072 0.4031375 0)
(1.3252775 0.37001878 0)
(0.95373535 0.33934867 0)
(0.5818396 0.30229127 0)
(0.26740501 0.2409816 0)
(0.056372197 0.19350221 0)
(0.36223895 0.010187463 -1.0104052e-19)
(0.82874283 0.012101913 -1.8623893e-19)
(1.1214287 0.028920948 1.2080148e-20)
(1.2750794 0.018594235 1.7202546e-19)
(1.4736978 0.03465886 -1.0815402e-20)
(1.5370615 0.038595833 5.9548775e-20)
(1.7154612 0.023119696 -5.1955676e-20)
(1.7615567 0.05666985 0)
(1.6006263 0.29876333 -5.672396e-19)
(1.7270105 0.26892607 8.1108177e-21)
(1.8830315 0.22867834 2.817181e-19)
(2.0523068 0.21028632 0)
(2.0884034 0.1530677 0)
(2.0957285 0.11013077 -1.64554e-19)
(2.0394396 0.070514746 1.0237483e-19)
(1.9718228 0.037865984 0)
(1.9222981 0.012384343 1.3836746e-20)
(1.2678971 0.27210124 0)
(0.88583411 0.22874195 0)
(0.5026638 0.1845713 0)
(0.1846527 0.12311345 0)
(-0.011629061 0.077501196 0)
(0.0021695377 0.068221867 0)
(0.36770598 0.0079689894 1.0657612e-19)
(0.82669441 0.0047477618 3.6843547e-21)
(1.0950443 0.007884946 -1.1992594e-19)
(1.2989918 0.013324563 1.0852043e-19)
(1.4034919 0.0038887899 0)
(1.5748084 0.0057125059 -1.6707636e-19)
(1.641426 0.016746525 6.9723612e-20)
(1.7938303 -0.0068700837 -4.8749936e-21)
(1.8420351 0.02496483 6.2413461e-21)
(1.1867508 0.15207211 4.7702381e-19)
(1.3258169 0.12840042 0)
(1.5489792 0.13295817 -2.6986401e-19)
(1.7507301 0.15115312 -2.9382929e-19)
(1.8761346 0.12138266 0)
(2.0185704 0.10028482 3.7008435e-19)
(2.0676795 0.062920268 -1.7301395e-19)
(2.0626853 0.027081547 -4.2895694e-21)
(2.0231123 -0.0029059426 -2.6415096e-20)
(1.9788055 -0.025621807 -1.5418993e-20)
(0.81653483 0.11988068 0)
(0.42317035 0.065288171 0)
(0.10362271 0.0023487656 0)
(-0.076227739 -0.04110658 0)
(-0.038387312 -0.039491647 0)
(0.25720933 -0.00086034164 0)
(0.36688182 0.0060792226 0)
(0.81351877 -0.0033335559 -2.0241999e-21)
(1.085736 -0.002872509 2.5850491e-19)
(1.2505527 -0.015180695 9.0591119e-22)
(1.4207655 -0.010329483 0)
(1.5112584 -0.015081121 1.0431211e-19)
(1.6614373 -0.023123818 0)
(1.7309618 -0.0094149749 5.9555024e-20)
(1.8618068 -0.03722126 5.4368809e-21)
(1.9046915 -0.0087852316 -6.9495766e-21)
(0.71811388 -0.011828151 -1.6985813e-19)
(0.92335625 -0.02572205 -1.7970995e-19)
(1.1956567 0.0013564773 -2.0734017e-20)
(1.3566086 0.032735393 6.1600536e-19)
(1.4976944 0.037632661 -2.7461214e-19)
(1.7083148 0.059034793 -2.3143018e-19)
(1.8525375 0.044598539 5.5784065e-20)
(1.9680805 0.020725218 9.4899128e-20)
(2.0216201 -0.008750026 2.2182625e-19)
(2.0258454 -0.036811939 -9.1234891e-20)
(2.0049459 -0.059300103 0)
(0.34420916 -0.051269122 0)
(0.024917163 -0.11781 0)
(-0.13826321 -0.15886281 0)
(-0.07086967 -0.14549854 0)
(0.25208965 -0.084071931 0)
(0.73641108 0.0097002023 0)
(0.35911371 0.0034281853 -7.8382681e-20)
(0.79379511 -0.010149367 0)
(1.0528631 -0.019325526 -1.3860313e-19)
(1.2423293 -0.02606032 -1.3400898e-19)
(1.3664746 -0.037926559 1.696074e-20)
(1.5190318 -0.038625441 1.2814258e-19)
(1.6063201 -0.037736997 -2.4204615e-20)
(1.7378126 -0.051211868 -6.0629698e-20)
(1.8065614 -0.037632877 -4.9881027e-21)
(1.9162488 -0.066074275 3.0810493e-21)
(1.9515748 -0.043412296 0)
(0.23888139 -0.18971586 -8.2838842e-21)
(0.50197625 -0.18173142 1.8341821e-19)
(0.81298754 -0.14477225 0)
(0.97130855 -0.11449536 -1.3246766e-19)
(1.1256918 -0.086914369 3.3430023e-19)
(1.3169904 -0.02992787 -3.9160199e-20)
(1.4670411 -0.010803821 2.5304712e-19)
(1.6562773 -0.0004456484 -2.8763285e-19)
(1.8067253 -0.011464673 -2.4115507e-19)
(1.9099043 -0.033944144 3.626402e-19)
(1.9636718 -0.059780532 1.4380748e-19)
(1.9811538 -0.083364107 3.8337873e-20)
(-0.057995858 -0.23487989 0)
(-0.19329825 -0.27273383 0)
(-0.092720131 -0.24790083 0)
(0.26124677 -0.16317808 0)
(0.75839297 -0.039643183 0)
(1.2327869 0.060875492 0)
(0.34483355 0.00040800827 7.8545775e-20)
(0.76469488 -0.017179321 -2.6170075e-21)
(1.0239196 -0.031883515 -5.151951e-21)
(1.1969564 -0.047534727 0)
(1.3577827 -0.052863281 -9.7872932e-21)
(1.4673633 -0.061472264 -1.2968979e-19)
(1.6049534 -0.067181646 0)
(1.6903674 -0.062861822 1.2455598e-20)
(1.805052 -0.078273969 0)
(1.8702961 -0.066553284 2.4193682e-21)
(1.9510303 -0.091068309 1.6080373e-20)
(1.9796748 -0.076258689 0)
(-0.14299509 -0.37123028 5.1030026e-20)
(0.0806408 -0.34640624 6.7002382e-21)
(0.38220187 -0.30252032 0)
(0.59604144 -0.26158853 -1.6398402e-19)
(0.80219526 -0.21826164 1.8700754e-19)
(0.96241963 -0.1512596 -3.9265025e-20)
(1.0715999 -0.1107159 -3.2477964e-19)
(1.2500081 -0.061493142 2.9700088e-19)
(1.4208706 -0.039020593 2.6128765e-19)
(1.5917823 -0.036462347 -2.089573e-19)
(1.7317501 -0.0494377 -1.8581914e-19)
(1.8292294 -0.070640558 4.9385065e-20)
(1.8881231 -0.093964123 1.7033669e-19)
(-0.25724745 -0.38086949 0)
(-0.10244611 -0.34480077 0)
(0.28434102 -0.23579465 0)
(0.7915026 -0.087320319 0)
(1.2540489 0.031217561 0)
(1.5201232 0.080727324 0)
(0.32459663 -0.0028282152 0)
(0.72905358 -0.023184201 -2.4579005e-20)
(0.98119145 -0.045558764 -4.0599811e-20)
(1.1687628 -0.061184656 5.7889174e-21)
(1.3084247 -0.076319526 9.2445286e-20)
(1.4554198 -0.081880951 1.905132e-20)
(1.5585193 -0.086187494 7.5021263e-20)
(1.6817166 -0.094662291 0)
(1.7641534 -0.089160146 0)
(1.8622318 -0.10365474 0)
(1.9236319 -0.094981451 1.0660927e-20)
(1.9581886 -0.11052035 9.2192767e-21)
(1.9729132 -0.10244254 -1.6690882e-19)
(-0.28753939 -0.50231637 -4.2692539e-20)
(-0.25276499 -0.50648895 4.3059591e-20)
(-0.040459372 -0.46204798 2.8156581e-21)
(0.20953653 -0.40688857 9.5098907e-20)
(0.45980484 -0.3470815 -2.1393664e-19)
(0.63914854 -0.27960714 1.881295e-19)
(0.75502681 -0.22901936 4.4112737e-20)
(0.8925882 -0.15811741 4.4881402e-21)
(1.0136026 -0.10768513 -2.6576465e-19)
(1.1768962 -0.070567325 -1.3235515e-19)
(1.3463072 -0.054716058 1.2505022e-19)
(1.5007472 -0.056880614 6.2847949e-20)
(1.6244407 -0.070780879 -5.5047204e-20)
(1.7136311 -0.090326431 -2.6880946e-19)
(-0.11125489 -0.43106951 0)
(0.31767226 -0.29951876 0)
(0.83492774 -0.13365634 0)
(1.2817234 -0.0015379547 0)
(1.5200562 0.059015029 0)
(1.5347262 0.057822188 0)
(0.29970131 -0.0056610535 7.7842706e-22)
(0.68603486 -0.028744157 5.1457708e-20)
(0.93818682 -0.056310053 2.2215526e-20)
(1.1197319 -0.078590699 -6.4849257e-21)
(1.2819586 -0.092232948 -9.3039931e-20)
(1.4075224 -0.10437245 0)
(1.5424692 -0.11104131 -7.8305957e-20)
(1.6408527 -0.11189825 0)
(1.7504088 -0.12080212 0)
(1.8291476 -0.1156178 3.0948647e-20)
(1.9073318 -0.1266365 -9.5212068e-21)
(1.963083 -0.12076942 -1.1885141e-20)
(1.9296179 -0.12357129 -9.5470318e-20)
(1.9031588 -0.11594742 3.1766454e-19)
(-0.075335868 -0.52084092 0)
(-0.35881706 -0.6082625 -5.2241578e-20)
(-0.33769121 -0.60290616 0)
(-0.15964749 -0.54734944 -9.5409593e-20)
(0.08209315 -0.47543778 0)
(0.30531104 -0.40325552 -1.8953613e-19)
(0.47630939 -0.34048583 1.8973555e-19)
(0.61223346 -0.26466985 0)
(0.69515827 -0.20263932 1.9814642e-19)
(0.80776969 -0.14085554 -1.0125566e-20)
(0.93734956 -0.095196566 -9.5655722e-20)
(1.0864019 -0.068549193 -5.4699474e-20)
(1.2341565 -0.059880972 -8.9559863e-22)
(1.3623308 -0.06426058 0)
(1.461488 -0.075727024 0)
(0.3632327 -0.35342762 0)
(0.88528704 -0.17965165 0)
(1.3130638 -0.037342378 0)
(1.5255508 0.033948426 0)
(1.5207575 0.042247764 0)
(1.3901496 0.018846231 0)
(0.27157314 -0.0075767612 0)
(0.63876238 -0.032910186 -2.771886e-20)
(0.88638922 -0.066116395 5.693135e-20)
(1.0776374 -0.09143871 -1.4886258e-20)
(1.2313815 -0.11189248 -6.6784185e-21)
(1.3809125 -0.1236629 0)
(1.4982719 -0.13210314 -1.093218e-20)
(1.6211644 -0.13925292 -2.124087e-20)
(1.7149107 -0.13806485 -1.2884692e-20)
(1.8111046 -0.14549393 -3.1485805e-20)
(1.8862656 -0.14126983 -1.0336459e-20)
(1.9380875 -0.14679565 -3.2761414e-20)
(1.9763374 -0.14059845 6.6917869e-20)
(1.8554821 -0.12940037 -2.5940799e-19)
(1.7430404 -0.1126817 0)
(0.43333436 -0.41511003 -7.4805969e-22)
(-0.13966038 -0.6059583 8.3422333e-21)
(-0.39109174 -0.68234759 -8.5176196e-20)
(-0.40854039 -0.66109575 -3.8389862e-20)
(-0.25667372 -0.59498806 0)
(-0.038019909 -0.51638565 -1.2355236e-20)
(0.17425816 -0.44116979 -3.1785737e-19)
(0.3466751 -0.36531543 9.6538131e-20)
(0.45377752 -0.29819316 -1.2004379e-19)
(0.54231261 -0.22737705 2.181423e-20)
(0.61723591 -0.165316 0)
(0.71505323 -0.11448618 -2.0592182e-19)
(0.83270809 -0.079744713 7.1153742e-20)
(0.95612188 -0.061535835 7.3155378e-20)
(1.0681203 -0.05583186 0)
(1.1561489 -0.056555014 9.8096505e-20)
(0.93850147 -0.22524463 0)
(1.3465048 -0.075814477 0)
(1.5353847 0.0056962295 0)
(1.511245 0.023720087 0)
(1.3763149 0.0091620066 0)
(1.2190838 -0.005657308 0)
(0.24185237 -0.0085175709 -2.2983382e-19)
(0.58789974 -0.035606754 0)
(0.8339003 -0.073017871 3.4338633e-20)
(1.0233769 -0.10400279 1.4899203e-20)
(1.1916522 -0.12659857 0)
(1.3317856 -0.14412085 7.5056587e-21)
(1.4703949 -0.15469319 0)
(1.5812759 -0.15978908 1.2273336e-20)
(1.6924674 -0.16618285 0)
(1.7816278 -0.1640587 1.443782e-20)
(1.8636336 -0.16867768 1.21655e-20)
(1.9334612 -0.16477082 3.2429613e-20)
(1.9507634 -0.16347356 2.1646828e-20)
(1.9438313 -0.15088188 5.6211848e-21)
(1.7225325 -0.12647107 6.4328758e-20)
(1.4859729 -0.093943638 0)
(0.99097131 -0.28089659 1.3169753e-21)
(0.33380182 -0.51200592 -7.4631031e-21)
(-0.127644 -0.66265723 1.2929842e-19)
(-0.42365542 -0.71486471 -2.8792864e-20)
(-0.46013024 -0.68407846 4.649784e-20)
(-0.33356761 -0.61100427 -6.7751489e-21)
(-0.13607798 -0.5300496 1.3040468e-19)
(0.062994563 -0.4526581 -7.068304e-20)
(0.22005612 -0.38136972 4.5951943e-20)
(0.33257377 -0.30978961 1.1952728e-19)
(0.39911533 -0.24328544 -4.1698275e-20)
(0.45629429 -0.18123913 -3.8651464e-20)
(0.52106142 -0.12852302 3.8670151e-20)
(0.60198854 -0.089052064 8.1892651e-20)
(0.69103194 -0.063778732 1.7780812e-19)
(0.77381535 -0.049466724 1.0271286e-19)
(0.83773463 -0.039863839 1.1617052e-20)
(1.3777683 -0.11548316 0)
(1.5460844 -0.024858751 0)
(1.5062769 0.0035946405 0)
(1.3658324 -0.0024584677 0)
(1.2119519 -0.010461235 0)
(1.018115 -0.012973712 0)
(0.21226972 -0.0085805894 -1.3440281e-20)
(0.5365723 -0.036554935 -3.982773e-21)
(0.77708979 -0.077664276 -6.3853442e-20)
(0.97227032 -0.11253497 0)
(1.1375466 -0.14120282 0)
(1.2932912 -0.16120147 0)
(1.4241968 -0.17540428 -7.122362e-20)
(1.5519763 -0.18477629 0)
(1.6569543 -0.18732418 0)
(1.7568611 -0.19184578 0)
(1.8416055 -0.18921177 4.1861263e-21)
(1.9079516 -0.19028802 -1.555781e-20)
(1.9642755 -0.18435239 4.4669001e-20)
(1.9359345 -0.17474632 1.9135731e-19)
(1.8452811 -0.14914888 7.9753906e-20)
(1.5185085 -0.11324492 0)
(1.1591699 -0.067158398 -2.2483474e-19)
(1.4039272 -0.16608902 -1.7843718e-19)
(0.87484003 -0.38952851 -2.5684633e-21)
(0.36053194 -0.56668922 -6.7023911e-20)
(-0.15681536 -0.68608725 6.2227106e-20)
(-0.43890845 -0.71556328 4.4860962e-20)
(-0.49531297 -0.67364558 6.783168e-21)
(-0.38994304 -0.59928121 -7.6041664e-21)
(-0.21262616 -0.52059748 -1.4617333e-20)
(-0.030580105 -0.44773656 -1.1464208e-19)
(0.11938589 -0.37844051 -1.590113e-19)
(0.22011972 -0.31256691 0)
(0.28258328 -0.24885058 1.9107781e-19)
(0.32161315 -0.18983251 1.847407e-19)
(0.35928106 -0.13807977 4.5366851e-20)
(0.40611759 -0.096629425 -2.2549143e-19)
(0.45969199 -0.066950965 0)
(0.51003919 -0.046810172 -1.1421886e-19)
(0.54741571 -0.030052314 -1.3378516e-19)
(1.5548999 -0.056482807 0)
(1.5038618 -0.017353685 0)
(1.3591486 -0.014853922 0)
(1.2070047 -0.016453806 0)
(1.0160503 -0.014157334 0)
(0.69907475 -0.017557429 0)
(0.18452337 -0.0079278639 2.4054109e-19)
(0.4858819 -0.035895925 -4.0216301e-21)
(0.72165045 -0.07917479 8.6400392e-21)
(0.91510439 -0.11853136 0)
(1.0888087 -0.15123988 0)
(1.2407762 -0.17718322 0)
(1.3859192 -0.19503475 4.6322973e-20)
(1.5092304 -0.20603488 8.0337669e-21)
(1.6265216 -0.21369417 5.5071546e-20)
(1.7259374 -0.21438347 0)
(1.8148506 -0.21635709 7.1268914e-21)
(1.8941081 -0.21278158 -4.6876508e-21)
(1.9425673 -0.20975993 -9.0465527e-20)
(1.9681058 -0.19795715 -6.7287598e-20)
(1.8757963 -0.17719299 0)
(1.6677795 -0.13507812 -3.9302601e-19)
(1.2455035 -0.090858185 2.3184954e-19)
(0.8159654 -0.042384993 -2.8037131e-19)
(1.5615392 -0.098131305 3.1769308e-19)
(1.3332348 -0.27187741 -6.9200881e-20)
(0.89272182 -0.45176675 2.3944852e-20)
(0.29289991 -0.60626781 1.2434654e-20)
(-0.16551749 -0.68266482 -2.3599052e-19)
(-0.45020577 -0.68565396 -1.1328547e-19)
(-0.51475805 -0.63690013 7.612892e-21)
(-0.4264092 -0.56550913 0)
(-0.26846955 -0.49350394 1.5119367e-19)
(-0.10273652 -0.42726688 1.0838101e-19)
(0.034130263 -0.36520609 5.4259544e-20)
(0.12945145 -0.30497419 -1.9405485e-19)
(0.18431219 -0.24716379 -1.8911361e-19)
(0.21245123 -0.1927908 -5.8270466e-20)
(0.23037918 -0.1435568 -2.7147531e-19)
(0.25015164 -0.10202712 1.801455e-19)
(0.27394095 -0.070118654 2.5747522e-19)
(0.29623135 -0.047107581 0)
(0.31160084 -0.027315271 0)
(1.5011822 -0.039093172 0)
(1.3559788 -0.027211282 0)
(1.2047948 -0.022832641 0)
(1.0143649 -0.016305985 0)
(0.70140507 -0.017484941 0)
(0.2395297 -0.0031855835 0)
(0.15970541 -0.0068050469 4.9626247e-19)
(0.43841275 -0.033767304 1.6870503e-20)
(0.66641365 -0.077956221 9.1817131e-21)
(0.86103619 -0.1204778 -9.708333e-21)
(1.0326697 -0.15850259 9.6912418e-21)
(1.1936203 -0.18898444 0)
(1.335773 -0.21211066 1.7977663e-20)
(1.4707683 -0.22791138 -2.2521047e-20)
(1.5873087 -0.23610294 -8.7427816e-20)
(1.6946868 -0.24147165 -5.0476276e-20)
(1.7887093 -0.24056345 0)
(1.8670731 -0.23974054 -1.9991138e-20)
(1.9366829 -0.23393886 4.9562133e-20)
(1.961241 -0.22537984 7.1743909e-20)
(1.9306512 -0.20312615 1.086192e-20)
(1.7487335 -0.16739573 1.4654125e-19)
(1.4130879 -0.11094714 3.7938272e-19)
(0.9316122 -0.064929279 -1.7485033e-20)
(0.50926159 -0.026593913 3.4299729e-19)
(1.5003434 -0.068351867 -2.8047009e-20)
(1.5814635 -0.18032989 6.882214e-20)
(1.3254308 -0.34401632 -3.5389554e-21)
(0.80341478 -0.5146505 -8.7332285e-21)
(0.26602185 -0.61624889 -6.2866368e-21)
(-0.19051774 -0.65237699 -1.0547381e-19)
(-0.45523336 -0.63335946 1.3381838e-19)
(-0.52022479 -0.58085413 -7.7941855e-20)
(-0.44511931 -0.51584029 -3.8995294e-20)
(-0.30487221 -0.45337587 6.7419537e-20)
(-0.15615951 -0.39662272 -6.8811661e-20)
(-0.031641848 -0.34292781 4.1408857e-23)
(0.055330669 -0.29070755 0)
(0.10502017 -0.23997724 1.0985811e-19)
(0.12589108 -0.19114935 2.259332e-19)
(0.13112499 -0.1452963 -2.4067186e-19)
(0.13250892 -0.10474571 -2.6519684e-19)
(0.13526148 -0.072050187 -2.3549378e-19)
(0.13756917 -0.04836857 0)
(0.13831429 -0.029077157 1.0418084e-19)
(1.3547608 -0.0397697 0)
(1.2059538 -0.028900082 0)
(1.0131287 -0.018936241 0)
(0.70291747 -0.017253999 0)
(0.24492879 -0.0045804716 0)
(0.13871391 -0.0054494933 1.6135121e-20)
(0.39504383 -0.030488801 -8.5132379e-21)
(0.61517618 -0.074117867 2.8695492e-19)
(0.8061359 -0.11908299 3.2901322e-19)
(0.98061121 -0.16107414 -1.7331639e-19)
(1.1389782 -0.19742984 7.7902928e-20)
(1.2893622 -0.22589427 -9.2849921e-20)
(1.4232766 -0.24622485 3.9212246e-20)
(1.5486808 -0.25976765 3.6715046e-20)
(1.658966 -0.26549738 5.080711e-20)
(1.7571675 -0.26821735 0)
(1.8453047 -0.26548498 -7.8996625e-21)
(1.9132723 -0.26163092 -1.2996949e-20)
(1.964717 -0.25151605 -8.3769244e-20)
(1.9507011 -0.23409708 3.0438187e-20)
(1.8346322 -0.19699511 -4.6889517e-20)
(1.5413751 -0.14455758 -2.0540877e-19)
(1.1033126 -0.081917508 1.516898e-19)
(0.62337944 -0.043197709 -5.4215705e-19)
(0.26887825 -0.020928029 2.0624464e-19)
(1.3608069 -0.057906836 -1.0874746e-19)
(1.5988942 -0.12186041 2.0499829e-21)
(1.566568 -0.25386994 -2.6457551e-20)
(1.2763838 -0.41711004 2.9052045e-20)
(0.75804538 -0.54290359 1.1350503e-19)
(0.20336706 -0.60366534 2.398575e-19)
(-0.21576765 -0.60135582 1.3049767e-19)
(-0.45445518 -0.56446941 8.7871271e-20)
(-0.51436641 -0.51206582 3.5267956e-20)
(-0.44856609 -0.45639871 -1.4489682e-20)
(-0.32428995 -0.40533221 3.1760137e-20)
(-0.19186801 -0.35919266 -1.1249694e-19)
(-0.080386195 -0.31513719 -1.3801503e-19)
(-0.0017616425 -0.27174442 0)
(0.042782983 -0.22871065 0)
(0.058898917 -0.18573628 -2.2461085e-19)
(0.056921644 -0.14341339 0)
(0.047803211 -0.10424741 4.1789969e-19)
(0.038478296 -0.07168934 -7.2855215e-21)
(0.029687816 -0.048741711 -1.0244767e-19)
(0.023706984 -0.032310181 -1.1519994e-19)
(1.2110165 -0.034862367 0)
(1.0142179 -0.021186469 0)
(0.70199696 -0.017178796 0)
(0.25175349 -0.0046927269 0)
(0.1219102 -0.0040177926 1.382962e-20)
(0.35727125 -0.026346559 -2.6292689e-20)
(0.56772735 -0.068245324 -2.6482594e-19)
(0.7557914 -0.11423068 -3.4720512e-19)
(0.92687796 -0.15980513 1.7221183e-19)
(1.0883003 -0.20096476 -8.8356489e-20)
(1.2364495 -0.23553991 9.862008e-20)
(1.3771404 -0.26201607 -9.824716e-21)
(1.5038208 -0.27967384 0)
(1.6204087 -0.29065573 0)
(1.7247041 -0.2940177 0)
(1.8147028 -0.29395742 2.0264173e-20)
(1.895319 -0.28879662 0)
(1.9505035 -0.28095157 -3.1293906e-20)
(1.9696639 -0.26338723 0)
(1.8917578 -0.23206377 0)
(1.6642492 -0.17740084 -7.742928e-20)
(1.2611478 -0.1123397 1.7012248e-19)
(0.77954643 -0.055271955 9.4398594e-20)
(0.36144204 -0.030601502 -4.3785491e-19)
(0.10034018 -0.022703007 0)
(1.2310843 -0.045839295 1.1269437e-21)
(1.4915013 -0.094723878 3.0752715e-21)
(1.6046765 -0.18325692 2.3894885e-20)
(1.5923814 -0.32297782 -3.4456456e-20)
(1.2135218 -0.46441446 -1.2421032e-19)
(0.67215633 -0.55123508 1.8846715e-20)
(0.1393088 -0.56538697 -2.5105038e-19)
(-0.23997355 -0.53287966 -1.6273519e-19)
(-0.44931493 -0.4849521 -4.4835722e-20)
(-0.4988251 -0.43708548 -5.4155191e-21)
(-0.4394915 -0.39244969 2.8093371e-20)
(-0.32939187 -0.35351856 7.7489643e-20)
(-0.21230711 -0.31840737 -3.4004257e-22)
(-0.11342394 -0.2842919 7.8051541e-20)
(-0.043361334 -0.24994615 0)
(-0.0038627652 -0.21445612 3.2607674e-19)
(0.0089016835 -0.17681196 8.2485745e-20)
(0.0035020532 -0.1375561 -1.7601936e-19)
(-0.0098257053 -0.099806157 1.0887367e-19)
(-0.023443652 -0.068121772 3.2357132e-19)
(-0.034801013 -0.047017182 -1.1900483e-19)
(-0.040868223 -0.035232226 -1.4043935e-19)
(1.0224182 -0.022349704 0)
(0.69870721 -0.017397742 0)
(0.26033459 -0.0038011511 0)
(0.10958092 -0.0026295087 -5.0367419e-19)
(0.3254629 -0.021503577 -8.8623406e-21)
(0.52608261 -0.060811949 -6.1049597e-19)
(0.70854051 -0.10664173 -2.1475139e-20)
(0.87796784 -0.15440817 -3.5243762e-19)
(1.0357229 -0.20010354 -2.3866852e-20)
(1.1864499 -0.24034895 0)
(1.3259769 -0.27305548 -1.2468471e-20)
(1.4578268 -0.29740717 -5.8707492e-21)
(1.5779943 -0.31247758 0)
(1.6866989 -0.32065901 0)
(1.784943 -0.32148687 -2.0577154e-20)
(1.8676043 -0.31849685 0)
(1.9374547 -0.30990545 3.1751511e-20)
(1.9714899 -0.29563015 0)
(1.9369039 -0.26601197 1.066936e-19)
(1.7642587 -0.21586888 1.494587e-19)
(1.4155124 -0.14526501 2.7361439e-19)
(0.94039538 -0.07842345 2.0881106e-19)
(0.48657111 -0.037260851 -1.2412301e-19)
(0.16489499 -0.027427165 1.328109e-19)
(-0.0034027684 -0.028525193 0)
(1.0640315 -0.026376244 0)
(1.3885318 -0.082702943 1.8972824e-22)
(1.5162852 -0.13467557 -1.8404966e-21)
(1.6930318 -0.24278691 3.4586592e-20)
(1.545305 -0.38200499 3.4543614e-20)
(1.1470394 -0.48971324 0)
(0.57149361 -0.52926142 0)
(0.076295933 -0.50597482 9.0485801e-20)
(-0.2637267 -0.45173575 0)
(-0.438203 -0.40159077 0)
(-0.47559792 -0.36106495 -6.0555036e-21)
(-0.42055983 -0.32827611 6.5451079e-21)
(-0.3229051 -0.30129277 -5.0864489e-20)
(-0.21985805 -0.27689494 4.529392e-20)
(-0.13280728 -0.2524798 4.5992726e-20)
(-0.071013475 -0.22665932 -3.7046202e-19)
(-0.036515821 -0.19768634 2.0108458e-19)
(-0.026145569 -0.16407597 -2.1068098e-19)
(-0.03213868 -0.12692372 -2.1093908e-19)
(-0.044826544 -0.090534592 -2.4201863e-19)
(-0.05660748 -0.060897989 1.3297898e-19)
(-0.063688368 -0.042808565 -2.8798946e-19)
(-0.064202207 -0.036221003 -1.6235203e-19)
(0.70260429 -0.015379211 0)
(0.26349602 -0.0021411889 0)
(0.10209075 -0.0016522367 0)
(0.30041716 -0.016248756 5.6657602e-19)
(0.49019698 -0.052271213 1.2560174e-18)
(0.66707888 -0.096829349 0)
(0.83158966 -0.14568805 3.7201175e-19)
(0.98776873 -0.19462684 5.0159691e-20)
(1.1349125 -0.24015742 5.2699932e-20)
(1.276169 -0.27936756 0)
(1.408244 -0.31014394 0)
(1.5322527 -0.3321584 0)
(1.6464005 -0.3445814 0)
(1.7482662 -0.34979525 2.0670925e-20)
(1.8401073 -0.34776701 9.5753886e-22)
(1.9150474 -0.34129979 -7.2408838e-21)
(1.9678211 -0.32740591 0)
(1.9634318 -0.30232144 -1.0876568e-19)
(1.8465324 -0.2549953 -1.5293681e-19)
(1.5556559 -0.18448884 -2.8614717e-19)
(1.1069443 -0.10638048 0)
(0.62596588 -0.051301096 -1.0844681e-20)
(0.25360953 -0.029917652 -1.4267403e-19)
(0.034981402 -0.030998696 6.2945255e-21)
(-0.052824884 -0.034714535 3.1815862e-19)
(0.7908661 -0.0020648431 -1.7751759e-21)
(1.2880742 -0.070614742 -5.7708517e-20)
(1.4085026 -0.10373925 3.0340425e-20)
(1.6324835 -0.18616643 -3.2843539e-20)
(1.699375 -0.29833102 8.7302505e-20)
(1.5315418 -0.42050237 0)
(1.0260692 -0.48897128 0)
(0.47593713 -0.48365902 0)
(0.0086357432 -0.42948361 5.4865529e-20)
(-0.27974292 -0.36614651 -3.2123098e-19)
(-0.42185167 -0.31895785 -3.0529364e-20)
(-0.44634362 -0.28806739 -7.009917e-20)
(-0.3942404 -0.26698372 2.3443202e-20)
(-0.30739216 -0.25110568 5.2850472e-20)
(-0.21687784 -0.23664115 0)
(-0.14058915 -0.22112057 1.4679992e-19)
(-0.086570551 -0.20250952 -2.0520925e-19)
(-0.05671899 -0.17818836 2.158808e-19)
(-0.047715045 -0.14680326 1.2191192e-19)
(-0.051959713 -0.11079431 -1.2803969e-20)
(-0.060354628 -0.076164635 0)
(-0.065775428 -0.049810625 -1.5271408e-19)
(-0.064675557 -0.036129998 4.9335504e-19)
(-0.055223622 -0.032399211 -3.5231294e-19)
(0.23381423 0.0068948761 0)
(0.10038097 -0.0019775725 9.9411338e-19)
(0.28288677 -0.011744379 -5.419975e-19)
(0.46118661 -0.043325614 -1.2572241e-18)
(0.63092229 -0.085547937 4.372079e-20)
(0.79096203 -0.13418535 0)
(0.94211327 -0.18527784 0)
(1.0873389 -0.23500929 -3.3989378e-19)
(1.2254771 -0.28014374 -1.2031826e-21)
(1.3583772 -0.31814353 -1.1763586e-19)
(1.4839626 -0.34690173 1.1007952e-19)
(1.6012127 -0.36635389 9.757936e-21)
(1.7096621 -0.3759274 -8.8236867e-21)
(1.8056432 -0.37797255 4.7679231e-21)
(1.8903776 -0.37260025 5.7052351e-21)
(1.954162 -0.36124171 -2.4561552e-20)
(1.9774561 -0.33845065 -3.0869238e-20)
(1.9078179 -0.29643978 0)
(1.6796809 -0.22705538 2.0249189e-19)
(1.27181 -0.14151384 -1.1583744e-19)
(0.77943901 -0.070049659 2.6929794e-19)
(0.35826832 -0.035828007 0)
(0.089605237 -0.031194568 1.5785058e-19)
(-0.035876581 -0.036939499 -1.6874902e-19)
(-0.058832273 -0.035834217 0)
(0.35995521 0.05963741 -1.1755735e-19)
(1.0992847 -0.051595291 5.4787151e-20)
(1.3172866 -0.081610486 -3.0065534e-20)
(1.530874 -0.14815066 0)
(1.6824666 -0.22745997 4.7515227e-21)
(1.7442656 -0.34550984 -1.5262208e-19)
(1.4330783 -0.43846583 0)
(0.91862872 -0.4613557 8.9474726e-20)
(0.3581004 -0.41666166 -1.1862623e-19)
(-0.045887836 -0.34402528 2.5713759e-19)
(-0.28979621 -0.28027685 6.982131e-20)
(-0.40030483 -0.24111164 9.7538478e-20)
(-0.41268727 -0.2207959 0)
(-0.36268845 -0.21055597 -3.879624e-20)
(-0.28510182 -0.20455983 -8.9130755e-20)
(-0.20552501 -0.19889961 0)
(-0.13882434 -0.19083429 0)
(-0.091910958 -0.17730273 0)
(-0.065964102 -0.15516142 0)
(-0.057038989 -0.12420593 1.3616575e-19)
(-0.0574944 -0.08899055 0)
(-0.059135577 -0.057208225 -8.551936e-21)
(-0.05608142 -0.035897145 -3.4181191e-19)
(-0.045591124 -0.026434578 7.3696223e-19)
(-0.023267382 -0.018603989 1.9053578e-19)
(0.083585816 0.010312988 -9.9631204e-19)
(0.27276874 -0.009875135 1.7474297e-20)
(0.4395457 -0.035169351 -2.5024943e-20)
(0.60141331 -0.073804624 4.3877419e-20)
(0.75531592 -0.12086811 -4.4357863e-19)
(0.90205051 -0.1726714 5.3558117e-20)
(1.0421521 -0.22544865 2.2617732e-19)
(1.1778153 -0.27567723 6.1610482e-20)
(1.3082314 -0.32021949 8.53659e-20)
(1.4339736 -0.3568025 -1.0937307e-19)
(1.55387 -0.383375 0)
(1.665434 -0.400025 4.2061885e-20)
(1.7684768 -0.40647029 -1.1766215e-20)
(1.859021 -0.40497168 5.2524786e-22)
(1.9347219 -0.3952672 2.4783737e-20)
(1.9784369 -0.37607087 4.7307662e-20)
(1.9505927 -0.33846745 3.4557072e-20)
(1.7833539 -0.27326158 -1.0784862e-19)
(1.4297526 -0.18289146 1.374006e-19)
(0.94351604 -0.095693113 -1.5331815e-19)
(0.47993524 -0.044284544 0)
(0.15769924 -0.031421651 -3.5620701e-19)
(-0.0091294595 -0.036412815 0)
(-0.056847301 -0.038430349 3.9373676e-19)
(-0.029661159 -0.022863385 -5.8990773e-19)
(0.11127746 0.045153038 1.7282587e-19)
(0.76145788 -0.00083037684 -3.8451078e-21)
(1.2031743 -0.0646811 -4.2776338e-20)
(1.4353539 -0.11570923 1.605587e-21)
(1.5898431 -0.17856817 -7.1614218e-20)
(1.7735789 -0.27387904 1.7189875e-19)
(1.7160033 -0.3742152 0)
(1.3429917 -0.43180507 0)
(0.76316272 -0.40929393 -6.2657561e-19)
(0.25887418 -0.33493689 6.7981168e-19)
(-0.095227742 -0.25544726 0)
(-0.29177082 -0.19922876 3.2524505e-19)
(-0.3744151 -0.17063486 1.5955927e-19)
(-0.37608593 -0.16072738 8.2844148e-21)
(-0.32767029 -0.16003245 3.4295136e-20)
(-0.25790279 -0.16250588 3.3418632e-20)
(-0.1877196 -0.16413562 0)
(-0.129457 -0.16134301 7.4470188e-20)
(-0.088752277 -0.15003574 1.4882732e-19)
(-0.065658451 -0.12760959 8.8672113e-21)
(-0.055419007 -0.096159574 1.576056e-19)
(-0.050730502 -0.062704307 3.3491477e-19)
(-0.044912152 -0.035909821 0)
(-0.034134415 -0.02079713 -1.9099869e-19)
(-0.015471096 -0.012517826 -1.9702701e-19)
(0.16478599 0.0017239848 -9.5421925e-19)
(0.24506508 0.011709335 3.5096157e-20)
(0.42369551 -0.027214425 6.5917458e-19)
(0.57838467 -0.062443652 0)