/*--------------------------------*- C++ -*----------------------------------*\
| =========                 |                                                 |
| \\      /  F ield         | OpenFOAM: The Open Source CFD Toolbox           |
|  \\    /   O peration     | Version:  2112                                  |
|   \\  /    A nd           | Website:  www.openfoam.com                      |
|    \\/     M anipulation  |                                                 |
\*---------------------------------------------------------------------------*/
FoamFile
{
    version     2.0;
    format      ascii;
    arch        "LSB;label=32;scalar=64";
    class       volScalarField;
    location    "0";
    object      Phi;
}
// * * * * * * * * * * * * * * * * * * * * * * * * * * * * * * * * * * * * * //

dimensions      [0 2 -1 0 0 0 0];

internalField   nonuniform List<scalar> 
2000
(
1.48977
1.48353
1.47253
1.45783
1.44018
1.42015
1.39815
1.37454
1.34955
1.32341
1.55253
1.54683
1.53677
1.52333
1.5072
1.48888
1.46878
1.44719
1.42436
1.40048
1.61936
1.61423
1.60518
1.59309
1.57858
1.5621
1.54402
1.5246
1.50406
1.48259
1.68985
1.68532
1.67735
1.66669
1.65389
1.63935
1.6234
1.60626
1.58813
1.56916
1.76357
1.75968
1.75283
1.74367
1.73267
1.72017
1.70645
1.69171
1.6761
1.65975
1.84006
1.83683
1.83115
1.82355
1.81443
1.80406
1.79268
1.78044
1.76747
1.75387
1.91884
1.91631
1.91184
1.90585
1.89867
1.89051
1.88154
1.87189
1.86167
1.85095
1.99944
1.99761
1.99438
1.99006
1.98486
1.97897
1.97248
1.96551
1.95812
1.95037
2.08135
2.08023
2.07827
2.07563
2.07247
2.06888
2.06494
2.06069
2.05619
2.05147
2.16405
2.16366
2.16297
2.16205
2.16094
2.15969
2.15831
2.15683
2.15526
2.15361
1.15414
1.14512
1.12924
1.10804
1.0826
1.05377
1.02216
0.988265
0.952457
0.915038
1.16057
1.1516
1.13582
1.11473
1.08944
1.06077
1.02934
0.995636
0.960034
0.922834
1.17339
1.16453
1.14892
1.12807
1.10307
1.07473
1.04365
1.01033
0.975136
0.938364
1.19253
1.18382
1.16849
1.148
1.12343
1.09557
1.06502
1.03227
0.997669
0.961527
1.21789
1.20938
1.19441
1.17439
1.15039
1.12317
1.09333
1.06131
1.0275
0.992174
1.24931
1.24106
1.22653
1.20711
1.18382
1.15739
1.12841
1.09732
1.06446
1.03012
1.28661
1.27866
1.26467
1.24597
1.22352
1.19805
1.17011
1.14011
1.10838
1.07518
1.32958
1.32199
1.30862
1.29074
1.26929
1.24494
1.21821
1.18949
1.15908
1.12722
1.37796
1.37077
1.35811
1.34119
1.32087
1.2978
1.27247
1.24525
1.21642
1.18617
1.43146
1.42473
1.41286
1.39699
1.37794
1.35632
1.33258
1.30708
1.28011
1.2519
0.876349
0.83622
0.795075
0.753057
0.710285
0.666861
0.622874
0.578396
0.533492
0.488215
0.442615
0.396732
0.350605
0.304268
0.257753
0.21109
0.164308
0.117433
0.0704942
0.0235164
0.883969
0.843293
0.801645
0.759155
0.715938
0.672092
0.6277
0.582832
0.537549
0.491903
0.445938
0.399696
0.353213
0.306523
0.259656
0.212644
0.165514
0.118293
0.0710088
0.0236867
0.899149
0.857395
0.814746
0.771319
0.727219
0.682533
0.637336
0.591692
0.545654
0.499268
0.452576
0.405615
0.358419
0.311022
0.263454
0.215744
0.167919
0.120008
0.0720347
0.0240263
0.921785
0.878429
0.834295
0.789478
0.744067
0.698135
0.651744
0.604944
0.557779
0.510287
0.462504
0.414465
0.366202
0.317746
0.269126
0.220371
0.171509
0.122565
0.0735648
0.0245326
0.95172
0.906251
0.860161
0.813521
0.766392
0.718826
0.670864
0.622537
0.573877
0.524914
0.475679
0.426204
0.376519
0.326654
0.276638
0.226498
0.17626
0.125949
0.075589
0.0252022
0.988751
0.940666
0.892174
0.843305
0.79408
0.744511
0.694609
0.644387
0.593864
0.543066
0.49202
0.440755
0.389301
0.337687
0.285938
0.234082
0.182141
0.130138
0.0780944
0.0260309
1.03265
0.981452
0.930144
0.878676
0.826994
0.775056
0.722843
0.670353
0.617601
0.564608
0.511401
0.458007
0.404452
0.350763
0.296962
0.243072
0.189113
0.135106
0.0810666
0.0270142
1.08325
1.02842
0.973915
0.919481
0.864956
0.810253
0.755339
0.700207
0.644869
0.589343
0.533651
0.477814
0.421852
0.365785
0.309632
0.25341
0.197136
0.140824
0.08449
0.0281475
1.1406
1.08158
1.0234
0.965509
0.907662
0.849758
0.791754
0.733633
0.675393
0.617038
0.558576
0.500016
0.44137
0.38265
0.323867
0.265035
0.206163
0.147264
0.0883475
0.0294252
1.20506
1.1412
1.07838
1.01629
0.954596
0.893093
0.83168
0.770293
0.708894
0.647462
0.585983
0.524455
0.462877
0.401251
0.339583
0.277878
0.216145
0.154389
0.0926185
0.0308405
1.24743
1.18009
1.11392
1.04872
0.984205
0.920139
0.856365
0.792774
0.729294
0.665877
0.60249
0.539114
0.475734
0.412343
0.348939
0.28552
0.222087
0.158643
0.0951892
0.0317304
1.26201
1.19331
1.12585
1.05937
0.993646
0.928473
0.863702
0.799219
0.73494
0.670805
0.60677
0.542805
0.478887
0.415
0.351133
0.28728
0.223434
0.159594
0.0957554
0.0319183
1.27505
1.20531
1.13679
1.06927
1.00253
0.936406
0.870752
0.805459
0.740441
0.675631
0.61098
0.546449
0.482008
0.417636
0.353315
0.289032
0.224777
0.160542
0.0963202
0.0321059
1.28655
1.21607
1.14675
1.07838
1.0108
0.943866
0.877441
0.811424
0.745733
0.6803
0.615071
0.550003
0.485062
0.420221
0.355458
0.290756
0.2261
0.161477
0.0968775
0.032291
1.29668
1.22568
1.15574
1.08671
1.01844
0.950814
0.883721
0.817065
0.750768
0.684765
0.619
0.553429
0.488015
0.422727
0.357541
0.292434
0.227389
0.16239
0.0974215
0.0324718
1.3056
1.23424
1.16383
1.09427
1.02543
0.95723
0.889563
0.822347
0.75551
0.688991
0.622735
0.556698
0.490841
0.425133
0.359544
0.294051
0.228633
0.16327
0.0979471
0.0326465
1.31347
1.24184
1.17108
1.10109
1.0318
0.963111
0.894953
0.82725
0.759936
0.692954
0.626252
0.559787
0.49352
0.427418
0.361451
0.295593
0.22982
0.164113
0.0984498
0.0328137
1.32041
1.24859
1.17755
1.10723
1.03755
0.968465
0.899889
0.831763
0.76403
0.696636
0.629533
0.562678
0.496035
0.429569
0.363249
0.297049
0.230943
0.16491
0.098926
0.032972
1.32651
1.25455
1.1833
1.11271
1.04273
0.973304
0.904374
0.835885
0.767785
0.700026
0.632564
0.565359
0.498372
0.431572
0.364928
0.29841
0.231995
0.165657
0.0993724
0.0331206
1.33186
1.25979
1.18838
1.11758
1.04735
0.977649
0.908419
0.839618
0.7712
0.703121
0.63534
0.567819
0.500524
0.43342
0.366479
0.299671
0.232969
0.166349
0.0997867
0.0332585
1.33652
1.26439
1.19285
1.12189
1.05145
0.981518
0.912036
0.842969
0.774275
0.705917
0.637855
0.570055
0.502483
0.435107
0.367897
0.300824
0.233862
0.166984
0.100167
0.033385
1.34057
1.26839
1.19676
1.12566
1.05506
0.984932
0.915239
0.845945
0.777016
0.708415
0.640109
0.572064
0.504247
0.436628
0.369177
0.301867
0.23467
0.16756
0.100511
0.0334997
1.34404
1.27183
1.20013
1.12893
1.0582
0.987911
0.918041
0.848558
0.779428
0.71062
0.642102
0.573843
0.505812
0.43798
0.370317
0.302796
0.23539
0.168073
0.100819
0.0336021
1.34699
1.27476
1.20301
1.13173
1.06089
0.990473
0.920459
0.850817
0.781519
0.712535
0.643837
0.575395
0.507179
0.439162
0.371315
0.303611
0.236023
0.168524
0.101089
0.0336921
1.34945
1.27721
1.20542
1.13408
1.06315
0.992636
0.922504
0.852732
0.783294
0.714165
0.645316
0.57672
0.508348
0.440174
0.37217
0.30431
0.236565
0.168911
0.101321
0.0337694
1.35146
1.27921
1.2074
1.136
1.06501
0.994415
0.924189
0.854312
0.784762
0.715514
0.646542
0.577819
0.50932
0.441016
0.372883
0.304892
0.237018
0.169234
0.101515
0.0338339
1.35303
1.28079
1.20895
1.13752
1.06648
0.995823
0.925524
0.855567
0.785929
0.716588
0.647518
0.578696
0.510095
0.441689
0.373452
0.305357
0.23738
0.169492
0.10167
0.0338856
1.35419
1.28195
1.2101
1.13865
1.06757
0.996869
0.926518
0.856501
0.786799
0.717389
0.648248
0.579352
0.510675
0.442193
0.373878
0.305706
0.237651
0.169686
0.101786
0.0339243
1.35496
1.28272
1.21086
1.13939
1.0683
0.997562
0.927176
0.857121
0.787376
0.717921
0.648733
0.579788
0.511061
0.442528
0.374162
0.305939
0.237832
0.169815
0.101863
0.0339501
1.35534
1.2831
1.21124
1.13976
1.06866
0.997908
0.927505
0.85743
0.787665
0.718187
0.648975
0.580006
0.511254
0.442696
0.374304
0.306055
0.237922
0.16988
0.101902
0.0339631
2.15331
2.05077
1.94922
1.84933
1.75174
1.65707
1.56592
1.47882
1.39615
1.3183
2.15431
2.05393
1.95446
1.85651
1.76069
1.66761
1.57789
1.49212
1.41081
1.33389
2.15518
2.05672
1.95911
1.86291
1.76872
1.67713
1.58877
1.50419
1.42379
1.34738
2.15595
2.05922
1.96329
1.86869
1.77599
1.68578
1.59861
1.51498
1.43514
1.35905
2.15664
2.06147
1.96706
1.87393
1.7826
1.69361
1.60747
1.52457
1.44512
1.36926
2.15726
2.06352
1.9705
1.87869
1.7886
1.70069
1.61541
1.53309
1.45397
1.37826
2.15782
2.06539
1.97364
1.88304
1.79404
1.70708
1.62253
1.54069
1.46183
1.38621
2.15834
2.0671
1.97651
1.887
1.79898
1.71285
1.62892
1.5475
1.46884
1.39325
2.15881
2.06867
1.97914
1.89062
1.80348
1.71806
1.63468
1.5536
1.4751
1.39947
2.15924
2.07011
1.98155
1.89392
1.80756
1.72279
1.63987
1.55908
1.48069
1.40495
2.15964
2.07145
1.98377
1.89695
1.81129
1.72708
1.64457
1.56402
1.48567
1.40977
2.16001
2.07268
1.98581
1.89973
1.8147
1.73099
1.64883
1.56846
1.49011
1.41399
2.16036
2.07382
1.9877
1.90229
1.81783
1.73456
1.6527
1.57246
1.49405
1.41766
2.16068
2.07488
1.98945
1.90466
1.82071
1.73783
1.65622
1.57606
1.49753
1.42082
2.16098
2.07586
1.99108
1.90684
1.82336
1.74082
1.65941
1.57928
1.5006
1.42352
2.16127
2.07678
1.99259
1.90887
1.82581
1.74357
1.6623
1.58216
1.50327
1.42578
2.16154
2.07765
1.994
1.91075
1.82806
1.74607
1.66492
1.58471
1.50558
1.42763
2.16179
2.07845
1.99531
1.9125
1.83014
1.74836
1.66727
1.58697
1.50755
1.42909
2.16204
2.07921
1.99653
1.91411
1.83205
1.75045
1.66938
1.58894
1.50918
1.43018
2.16228
2.07992
1.99767
1.91561
1.83381
1.75234
1.67126
1.59063
1.5105
1.43091
3.08847
3.06248
3.03763
3.01412
2.99222
2.97226
2.95467
2.94002
2.92906
2.92283
3.01087
2.98718
2.96452
2.94308
2.9231
2.90489
2.88885
2.87547
2.86547
2.85979
2.92833
2.90707
2.88673
2.86748
2.84954
2.83319
2.81878
2.80678
2.7978
2.7927
2.84143
2.82267
2.80474
2.78778
2.77199
2.7576
2.74492
2.73436
2.72646
2.72197
2.75056
2.73443
2.71902
2.70447
2.69092
2.67858
2.66771
2.65866
2.65189
2.64805
2.65623
2.64285
2.63009
2.61804
2.60683
2.59662
2.58764
2.58015
2.57456
2.57138
2.559
2.54849
2.53847
2.52901
2.52022
2.51222
2.50518
2.49932
2.49493
2.49245
2.45947
2.45192
2.44473
2.43795
2.43164
2.42591
2.42086
2.41666
2.41352
2.41174
2.35828
2.35377
2.34947
2.34541
2.34165
2.33822
2.33521
2.3327
2.33083
2.32976
2.25611
2.25466
2.25329
2.252
2.2508
2.24971
2.24876
2.24796
2.24736
2.24703
3.50237
3.46448
3.42825
3.39397
3.36203
3.3329
3.30722
3.28581
3.26979
3.26069
3.49441
3.45676
3.42075
3.38668
3.35493
3.32598
3.30045
3.27917
3.26325
3.2542
3.47856
3.44138
3.40581
3.37216
3.34079
3.31219
3.28696
3.26594
3.2502
3.24127
3.45494
3.41845
3.38353
3.35049
3.31969
3.2916
3.26683
3.24619
3.23074
3.22197
3.42373
3.38813
3.35406
3.32181
3.29175
3.26435
3.24018
3.22004
3.20497
3.19641
3.38514
3.3506
3.31756
3.28629
3.25715
3.23058
3.20716
3.18764
3.17304
3.16475
3.33939
3.30608
3.27423
3.24411
3.21606
3.1905
3.16797
3.1492
3.13515
3.12718
3.28666
3.25474
3.22429
3.19552
3.16873
3.14434
3.12284
3.10493
3.09153
3.08392
3.227
3.19678
3.16796
3.14075
3.11543
3.09236
3.07203
3.0551
3.04243
3.03524
3.16059
3.13248
3.10558
3.08015
3.05646
3.03488
3.01586
3.00002
2.98817
2.98144
4.42069
4.37109
4.32172
4.27262
4.22378
4.17522
4.12696
4.07901
4.0314
3.98415
3.93729
3.89085
3.84488
3.79942
3.75454
3.71029
3.66676
3.62405
3.58228
3.54158
4.42006
4.37013
4.32044
4.27101
4.22184
4.17295
4.12435
4.07606
4.02811
3.98051
3.9333
3.88651
3.84018
3.79434
3.74906
3.7044
3.66044
3.61728
3.57501
3.53377
4.41881
4.36823
4.3179
4.26781
4.21798
4.16842
4.11915
4.07019
4.02155
3.97327
3.92536
3.87786
3.83079
3.78421
3.73815
3.69268
3.64786
3.60377
3.56053
3.51823
4.41697
4.36543
4.31412
4.26305
4.21224
4.16168
4.11141
4.06144
4.01178
3.96246
3.91351
3.86494
3.81679
3.76909
3.72188
3.67519
3.6291
3.58366
3.53896
3.49509
4.41457
4.36175
4.30916
4.2568
4.20468
4.15281
4.10121
4.04989
3.99888
3.94818
3.89784
3.84785
3.79826
3.74909
3.70035
3.65208
3.60431
3.55709
3.51048
3.46454
4.41165
4.35726
4.30308
4.24912
4.19539
4.14189
4.08864
4.03566
3.98296
3.93056
3.87847
3.82672
3.77534
3.72433
3.67372
3.6235
3.57369
3.52429
3.47532
3.42681
4.40826
4.352
4.29594
4.24009
4.18446
4.12904
4.07385
4.01889
3.96419
3.90975
3.8556
3.80174
3.7482
3.69501
3.64215
3.58963
3.53742
3.48548
3.43375
3.38216
4.40443
4.34603
4.28782
4.22981
4.172
4.11438
4.05697
3.99976
3.94277
3.886
3.82946
3.77317
3.71714
3.66138
3.6059
3.55069
3.4957
3.44086
3.38598
3.3308
4.40023
4.33941
4.27879
4.21836
4.15812
4.09805
4.03816
3.97845
3.91891
3.85954
3.80035
3.74133
3.6825
3.62384
3.56535
3.50701
3.44877
3.39052
3.33203
3.2727
4.39569
4.33217
4.2689
4.20583
4.14293
4.08019
4.01759
3.95513
3.89281
3.83061
3.76852
3.70655
3.64466
3.58283
3.52102
3.45916
3.39713
3.33474
3.27164
3.20751
4.39133
4.32652
4.2619
4.19742
4.13306
4.06882
4.00468
3.94062
3.87665
3.81274
3.74887
3.68502
3.62115
3.5572
3.49311
3.42875
3.36396
3.29851
3.23211
3.16453
4.38755
4.32285
4.2582
4.19363
4.12912
4.06466
4.00025
3.93587
3.87151
3.80715
3.74276
3.6783
3.61372
3.54897
3.48396
3.41856
3.35263
3.28596
3.21831
3.14942
4.38381
4.31913
4.25445
4.18977
4.12511
4.06045
3.99579
3.93111
3.86638
3.8016
3.73671
3.67169
3.60648
3.54101
3.47519
3.40892
3.34204
3.27438
3.20574
3.13587
4.38011
4.31542
4.25068
4.18591
4.1211
4.05625
3.99135
3.92638
3.86132
3.79614
3.7308
3.66528
3.59949
3.53339
3.46689
3.39988
3.33223
3.26379
3.19439
3.12384
4.37646
4.31174
4.24695
4.18208
4.11714
4.05211
3.98699
3.92175
3.85637
3.79083
3.72509
3.65911
3.59283
3.52618
3.4591
3.39147
3.3232
3.25416
3.1842
3.11319
4.37289
4.30814
4.24329
4.17833
4.11325
4.04806
3.98273
3.91725
3.85159
3.78573
3.71963
3.65325
3.58653
3.51942
3.45184
3.38371
3.31495
3.24544
3.17507
3.10375
4.36943
4.30465
4.23974
4.17469
4.10949
4.04415
3.97863
3.91293
3.84702
3.78087
3.71445
3.64771
3.58062
3.51311
3.44513
3.3766
3.30744
3.23757
3.1669
3.09536
4.36609
4.30129
4.23632
4.17119
4.10589
4.0404
3.97472
3.90882
3.84268
3.77627
3.70957
3.64254
3.57513
3.50729
3.43897
3.3701
3.30063
3.23049
3.15961
3.08792
4.36292
4.29809
4.23307
4.16787
4.10247
4.03685
3.97102
3.90494
3.8386
3.77198
3.70504
3.63774
3.57006
3.50194
3.43335
3.36422
3.29451
3.22415
3.15311
3.08133
4.35993
4.29508
4.23002
4.16474
4.09925
4.03353
3.96756
3.90133
3.83482
3.768
3.70085
3.63334
3.56543
3.49708
3.42826
3.35892
3.28902
3.21851
3.14735
3.07552
4.35714
4.29227
4.22717
4.16184
4.09627
4.03045
3.96436
3.898
3.83133
3.76435
3.69702
3.62933
3.56123
3.49269
3.42369
3.35418
3.28413
3.21351
3.14227
3.07041
4.35458
4.28969
4.22456
4.15918
4.09354
4.02763
3.96144
3.89496
3.82817
3.76105
3.69357
3.62572
3.55746
3.48877
3.41962
3.34998
3.27982
3.20911
3.13783
3.06595
4.35227
4.28736
4.2222
4.15677
4.09107
4.02509
3.95882
3.89224
3.82534
3.7581
3.6905
3.62252
3.55413
3.48532
3.41605
3.3463
3.27605
3.20528
3.13397
3.0621
4.35021
4.28529
4.2201
4.15464
4.08889
4.02284
3.9565
3.88983
3.82284
3.75551
3.6878
3.61972
3.55123
3.48231
3.41295
3.34313
3.27281
3.202
3.13067
3.05881
4.34842
4.2835
4.21829
4.15279
4.08699
4.0209
3.95449
3.88776
3.8207
3.75328
3.68549
3.61732
3.54875
3.47975
3.41032
3.34043
3.27007
3.19923
3.12789
3.05605
4.34692
4.28198
4.21675
4.15123
4.0854
4.01927
3.95281
3.88603
3.8189
3.75142
3.68357
3.61533
3.54669
3.47763
3.40815
3.33821
3.26782
3.19695
3.12561
3.05379
4.3457
4.28076
4.21552
4.14998
4.08412
4.01795
3.95146
3.88463
3.81746
3.74993
3.68202
3.61374
3.54505
3.47595
3.40642
3.33645
3.26603
3.19515
3.12381
3.05201
4.34479
4.27984
4.21459
4.14903
4.08316
4.01696
3.95044
3.88358
3.81638
3.74881
3.68087
3.61254
3.54382
3.47468
3.40513
3.33513
3.2647
3.19381
3.12248
3.05069
4.34417
4.27922
4.21397
4.1484
4.08251
4.0163
3.94976
3.88288
3.81565
3.74806
3.6801
3.61175
3.543
3.47385
3.40427
3.33426
3.26381
3.19293
3.12159
3.04981
4.34387
4.27891
4.21365
4.14808
4.08219
4.01597
3.94942
3.88253
3.81529
3.74769
3.67971
3.61135
3.54259
3.47343
3.40384
3.33383
3.26337
3.19248
3.12115
3.04938
3.09326
3.0149
2.93183
2.8444
2.753
2.65813
2.56039
2.46039
2.35878
2.2562
3.0772
2.99985
2.91818
2.83213
2.74218
2.64893
2.55298
2.45494
2.35541
2.255
3.06324
2.98647
2.90577
2.82095
2.73238
2.64064
2.54634
2.45006
2.3524
2.25392
3.05111
2.97472
2.89463
2.81079
2.72346
2.63312
2.54033
2.44567
2.34969
2.25295
3.04044
2.96433
2.88468
2.80162
2.71535
2.62627
2.53486
2.44167
2.34723
2.25206
3.03098
2.95508
2.8758
2.79336
2.70799
2.62002
2.52987
2.43803
2.34499
2.25124
3.02257
2.94682
2.86785
2.78594
2.70133
2.61433
2.52531
2.43469
2.34293
2.25049
3.01509
2.93941
2.86071
2.77925
2.6953
2.60915
2.52113
2.43162
2.34103
2.24979
3.00844
2.93278
2.85428
2.77321
2.68984
2.60444
2.51732
2.42881
2.33929
2.24915
3.00254
2.92683
2.84848
2.76774
2.68488
2.60014
2.51382
2.42622
2.33768
2.24856
2.99733
2.92151
2.84325
2.76279
2.68036
2.59622
2.51062
2.42384
2.33619
2.24801
2.99274
2.91676
2.83854
2.75829
2.67624
2.59262
2.50767
2.42164
2.33482
2.2475
2.98874
2.91253
2.83429
2.75421
2.67248
2.58933
2.50496
2.41962
2.33355
2.24703
2.98527
2.90879
2.83048
2.7505
2.66905
2.5863
2.50246
2.41775
2.33238
2.2466
2.98231
2.9055
2.82707
2.74715
2.66591
2.58352
2.50016
2.41602
2.33129
2.2462
2.97982
2.90264
2.82403
2.74412
2.66305
2.58097
2.49804
2.41442
2.33028
2.24583
2.97779
2.90017
2.82134
2.74139
2.66045
2.57863
2.49608
2.41294
2.32935
2.2455
2.97619
2.89809
2.81898
2.73895
2.65808
2.57649
2.49428
2.41157
2.3285
2.24519
2.97501
2.89638
2.81695
2.73678
2.65595
2.57453
2.49262
2.41031
2.3277
2.24491
2.97424
2.89503
2.81523
2.73489
2.65404
2.57276
2.49111
2.40915
2.32698
2.24466
)
;

boundaryField
{
    down
    {
        type            symmetryPlane;
    }
    right
    {
        type            fixedValue;
        value           uniform 0;
    }
    up
    {
        type            symmetryPlane;
    }
    left
    {
        type            zeroGradient;
    }
    cylinder
    {
        type            symmetry;
    }
    defaultFaces
    {
        type            empty;
    }
}


// ************************************************************************* //
