/*--------------------------------*- C++ -*----------------------------------*\
| =========                 |                                                 |
| \\      /  F ield         | OpenFOAM: The Open Source CFD Toolbox           |
|  \\    /   O peration     | Version:  2206                                  |
|   \\  /    A nd           | Website:  www.openfoam.com                      |
|    \\/     M anipulation  |                                                 |
\*---------------------------------------------------------------------------*/
FoamFile
{
    version     2.0;
    format      ascii;
    arch        "LSB;label=32;scalar=64";
    class       volScalarField;
    location    "4";
    object      p;
}
// * * * * * * * * * * * * * * * * * * * * * * * * * * * * * * * * * * * * * //

dimensions      [0 2 -2 0 0 0 0];

internalField   nonuniform List<scalar> 
2663
(
0.003012391
-0.0064391197
0.0006901211
-0.014642199
-0.0094015211
-0.0060629243
-0.021335518
-0.0182521
-0.015801103
-0.019614393
-0.026267855
-0.025547943
-0.0245489
-0.025913239
-0.039705654
-0.029213424
-0.031016882
-0.031812594
-0.031814946
-0.040508576
-0.066694678
-0.029977583
-0.034424835
-0.037254383
-0.03676263
-0.041386122
-0.06007693
-0.11328862
-0.028392972
-0.035585441
-0.040635325
-0.040374433
-0.041854662
-0.054469433
-0.092975433
-0.18868303
-0.02431149
-0.034351177
-0.041786716
-0.042400146
-0.041646036
-0.049301098
-0.075936081
-0.14830216
-0.27383795
-0.017592145
-0.030588317
-0.040585219
-0.042657253
-0.040640911
-0.044210493
-0.061320603
-0.11256064
-0.21375927
-0.34734802
-0.0080898328
-0.024155776
-0.036912837
-0.040988024
-0.0387024
-0.038978943
-0.048260217
-0.081809474
-0.15843916
-0.27280776
-0.37683199
0.0043254227
-0.01489934
-0.03061119
-0.037214043
-0.035610654
-0.033472253
-0.036395934
-0.055723282
-0.10923046
-0.20121259
-0.29663901
-0.34064764
0.019594818
-0.0027265818
-0.021466079
-0.031092556
-0.03105902
-0.027574348
-0.02576055
-0.03379224
-0.066386324
-0.13500316
-0.21812459
-0.26712126
-0.23775571
0.037275375
0.012435373
-0.0093669967
-0.022319471
-0.024661247
-0.020976972
-0.016042067
-0.015245525
-0.029723605
-0.075855469
-0.14464602
-0.19470713
-0.18165665
-0.29152845
-0.066236209
0.057237448
0.03050682
0.0059316976
-0.010617087
-0.015968
-0.013131794
-0.0063201968
0.0011435466
0.0011830427
-0.025025639
-0.079038445
-0.12667935
-0.1259283
-0.033258644
-0.097532497
0.15862716
0.07903022
0.051213238
0.024418183
0.0043982063
-0.0045053827
-0.0034288191
0.0042449199
0.01639546
0.026960851
0.016578647
-0.023457588
-0.065870817
-0.073298445
-0.00035092456
0.16907044
0.14771585
0.33068893
0.10207156
0.074039444
0.045820893
0.022745301
0.010096408
0.008705238
0.016074154
0.030904999
0.048203674
0.048782239
0.021083955
-0.014407427
-0.026312584
0.030493146
0.17836415
0.32761474
0.33066505
0.39813086
0.12572084
0.098264765
0.069514327
0.044122572
0.027935438
0.023649739
0.029757517
0.045275966
0.065638186
0.072628634
0.054929519
0.026508837
0.012847572
0.05723042
0.18548255
0.32134283
0.39000001
0.4013134
0.37636369
0.14933358
0.12305832
0.094607829
0.067751505
0.048504194
0.04130458
0.04589173
0.060527697
0.080783383
0.090246076
0.079153783
0.056444703
0.04242858
0.077976448
0.18917078
0.31151995
0.37728458
0.37090333
0.37697985
0.33036241
0.17229979
0.1476383
0.12015794
0.092587715
0.070708162
0.060803599
0.063380491
0.076761089
0.094983812
0.10337043
0.094714662
0.075103519
0.061143908
0.091179773
0.18808327
0.2975739
0.36007888
0.3608031
0.33156165
0.32540911
0.2944896
0.19414355
0.17140205
0.14536037
0.11760077
0.093310219
0.080705283
0.080800965
0.092635811
0.10723049
0.11151551
0.10144089
0.081864962
0.068380139
0.095704317
0.18090861
0.27880927
0.33834854
0.3462568
0.329144
0.30319503
0.28334387
0.27145583
0.21452101
0.19390214
0.16964834
0.14204173
0.1154629
0.0995954
0.095943459
0.1051374
0.11397705
0.11159712
0.097481942
0.076231339
0.064234865
0.090725384
0.16647883
0.25452698
0.31204833
0.32762188
0.32316484
0.30943408
0.28492016
0.2564369
0.25478951
0.23317228
0.2148301
0.19269624
0.16555136
0.13691515
0.11687272
0.10859085
0.11204511
0.11093377
0.10018587
0.080902324
0.058319753
0.048920681
0.07553725
0.14386787
0.22420173
0.28124297
0.30532999
0.31388371
0.31306277
0.29654219
0.26941248
0.23895215
0.24334201
0.24988058
0.2339722
0.2143405
0.18806945
0.1578227
0.13322904
0.11970291
0.11303669
0.098050414
0.076970443
0.05185531
0.028775966
0.022437838
0.049646145
0.11260778
0.18771361
0.24624726
0.27987066
0.30190892
0.31398045
0.30616337
0.28245298
0.25753299
0.22806409
0.23422416
0.26444901
0.25115454
0.23447281
0.20963656
0.17850156
0.15000572
0.13040183
0.10996021
0.079157095
0.045636676
0.013387535
-0.010636297
-0.014527541
0.013414439
0.073058768
0.14560144
0.20774839
0.25190652
0.28795364
0.31210438
0.31307728
0.29355689
0.27045986
0.24761257
0.22013808
0.22987498
0.27668659
0.26621156
0.25294398
0.23021893
0.19919181
0.16811993
0.14201001
0.10679966
0.060231855
0.012529135
-0.028866796
-0.05600011
-0.059327523
-0.031124132
0.026833169
0.099222661
0.16683991
0.22245875
0.27180298
0.30822243
0.31787396
0.30317776
0.28190998
0.26012849
0.24186978
0.21740788
0.28638294
0.27897639
0.26950431
0.24962291
0.21987397
0.18775038
0.15565171
0.1085312
0.046874313
-0.015204933
-0.067904138
-0.10129119
-0.10699638
-0.079943016
-0.022951585
0.050831531
0.12515077
0.1919684
0.25483475
0.30267256
0.31997342
0.31070693
0.29174236
0.27151753
0.2530656
0.2932989
0.28927325
0.28379407
0.26750043
0.24021341
0.20851132
0.17237054
0.116535
0.042711959
-0.031377994
-0.097050695
-0.13962183
-0.15109321
-0.12759058
-0.072060839
0.0033879339
0.084463262
0.16257679
0.23775348
0.29501396
0.32005935
0.31594542
0.299746
0.28148889
0.26317715
0.29721323
0.29686369
0.29538172
0.28341651
0.25961729
0.22965943
0.19219906
0.13189398
0.050260555
-0.034798889
-0.1116877
-0.16498328
-0.18530371
-0.16828377
-0.11600073
-0.039673476
0.047334665
0.13536287
0.22066688
0.28633286
0.31782886
0.31877386
0.30576483
0.28974372
0.27195904
0.29799227
0.30136715
0.30378788
0.29690468
0.27733867
0.25020356
0.21413677
0.15360447
0.069143088
-0.022506843
-0.10889314
-0.17432257
-0.20504068
-0.19624635
-0.14947105
-0.074528405
0.016085496
0.11150524
0.20442613
0.2764623
0.31309087
0.31896292
0.3096746
0.29598561
0.27920002
0.29561005
0.30255911
0.30849882
0.30754062
0.29258479
0.26903012
0.23649548
0.17952153
0.097023049
0.0033680518
-0.089808071
-0.16544311
-0.20733629
-0.20871101
-0.16972938
-0.098668831
-0.0073188919
0.0920753
0.18912814
0.26528557
0.30564288
0.31625582
0.31129619
0.29993309
0.28471521
0.29005744
0.30041794
0.30993049
0.31519459
0.30466105
0.28509519
0.25735045
0.20680022
0.13026142
0.039197593
-0.056715322
-0.14008754
-0.19196308
-0.2042154
-0.17467281
-0.11024316
-0.021931029
0.07750077
0.17495721
0.2526227
0.29537023
0.31040307
0.31034858
0.30132197
0.28832899
0.2817944
0.29491908
0.30772451
0.31883906
0.31319714
0.29766564
0.27498937
0.23244035
0.16477696
0.079963656
-0.013874242
-0.10141727
-0.16126887
-0.18354524
-0.16490459
-0.10942341
-0.027735687
0.067653067
0.16190342
0.23823154
0.28221233
0.3013031
0.30650133
0.2999272
0.28984488
0.27111692
0.28614402
0.30197739
0.31769291
0.31804522
0.30634847
0.28822469
0.25380935
0.1967352
0.1205825
0.032734344
-0.054158702
-0.11955265
-0.15014769
-0.14244154
-0.097801894
-0.02565685
0.06185932
0.14963681
0.22190043
0.26614062
0.28906204
0.29942098
0.29559705
0.28902254
0.25852454
0.27465002
0.29265762
0.31146392
0.31871933
0.31082234
0.29654606
0.26913294
0.22281536
0.15695034
0.077057526
-0.0046837998
-0.071859618
-0.10914464
-0.11100008
-0.078065244
-0.017539089
0.058981759
0.13757917
0.20354615
0.24719122
0.27387357
0.28885356
0.28829468
0.28559731
0.24462692
0.26110921
0.2801854
0.3008772
0.31549346
0.3114272
0.29995523
0.27788987
0.24056776
0.18583695
0.11490834
0.040350515
-0.024275869
-0.065703435
-0.075538474
-0.053805676
-0.0058885013
0.057672843
0.12523352
0.18336348
0.2256176
0.25591113
0.27472344
0.27810439
0.2793459
0.23006058
0.24627037
0.26528735
0.28706048
0.3076411
0.30766422
0.29874656
0.28063453
0.24925731
0.2047249
0.14380136
0.07674427
0.016896604
-0.025000957
-0.040836557
-0.028891982
0.0065875711
0.056699151
0.11227045
0.16183417
0.2020641
0.23532161
0.25714278
0.26517351
0.27016338
0.2153711
0.2308823
0.24887356
0.27079069
0.29445827
0.29999012
0.29332798
0.27820192
0.25020956
0.21274691
0.16179306
0.10299753
0.048044096
0.0081505135
-0.010834786
-0.0067358702
0.017678433
0.055125331
0.098615918
0.13978007
0.17748477
0.21235653
0.23653052
0.24962863
0.25810923
0.20092096
0.21561816
0.23193837
0.25272865
0.27679473
0.2891696
0.28443944
0.27107682
0.24562601
0.21147802
0.1682257
0.11825722
0.068828533
0.031294218
0.011858939
0.01037443
0.025862504
0.052456626
0.084727686
0.11821617
0.15281642
0.18753013
0.2136268
0.23158466
0.24339634
0.18681865
0.20094581
0.21538228
0.23382571
0.25677115
0.27525168
0.27199377
0.25941535
0.23690288
0.20391792
0.1650339
0.12248224
0.07980329
0.044733199
0.026386364
0.02195711
0.030544198
0.048579026
0.071494501
0.09805233
0.12881884
0.16172656
0.18936986
0.21139937
0.22636571
0.17291212
0.1870002
0.19985483
0.2152246
0.23607673
0.25758885
0.25722537
0.24445632
0.22427769
0.19242191
0.15553104
0.11797752
0.081879226
0.050070721
0.03313913
0.028436841
0.032439112
0.043896213
0.059659319
0.079950701
0.1061585
0.13612611
0.16476701
0.18972867
0.20749006
0.15886
0.17354035
0.18562542
0.19798954
0.21562282
0.23690353
0.24120854
0.22727809
0.20765957
0.17769742
0.14192055
0.10796862
0.077406392
0.049776196
0.033829019
0.030007698
0.032258862
0.039281625
0.049621401
0.064336174
0.085541082
0.1119782
0.14072157
0.16733655
0.18736599
0.14425672
0.16003712
0.17244325
0.18274442
0.19633019
0.21526386
0.22462258
0.20995723
0.18763097
0.15954651
0.12445685
0.093681708
0.068744516
0.04663451
0.031857659
0.028086124
0.02987835
0.034918625
0.041546815
0.051445642
0.067656811
0.090362674
0.11807107
0.14508686
0.16665279
0.12877589
0.14586959
0.15956122
0.16933724
0.17924184
0.19441617
0.20707359
0.19394975
0.16692498
0.13829381
0.10230212
0.074292293
0.055582225
0.041339917
0.030254126
0.02615765
0.026521493
0.030283091
0.035022595
0.041260318
0.052982621
0.071955702
0.097518161
0.12383161
0.14602845
0.11229577
0.13054809
0.14601583
0.15680431
0.16477511
0.17561862
0.18841647
0.1802102
0.14723658
0.11853176
0.074252443
0.048890727
0.035448133
0.031045354
0.028259167
0.026616495
0.025407694
0.026409384
0.029464998
0.033353668
0.041599476
0.057025107
0.079631946
0.1042978
0.12619309
0.094958841
0.11385932
0.13100427
0.14376971
0.15206234
0.15972979
0.16991533
0.16771398
0.13415418
0.089140419
0.038650099
0.01775638
0.0068279927
0.01149893
0.020985354
0.027400406
0.028051423
0.026092673
0.025837853
0.027361461
0.033243177
0.045566286
0.064814454
0.087102264
0.10785577
0.077197994
0.09591079
0.11414917
0.12907187
0.13929401
0.14632078
0.15335868
0.15475458
0.12718842
0.07283577
0.017858633
-0.016671896
-0.029067662
-0.019294944
0.0028782614
0.022797369
0.031526719
0.030129916
0.026794741
0.023958619
0.027761894
0.037477341
0.053305199
0.072710569
0.091610833
0.059822528
0.077161194
0.095503343
0.11211433
0.12474048
0.13343594
0.13925679
0.14122689
0.12258155
0.068818074
0.0017399625
-0.046481565
-0.068423202
-0.059307684
-0.028276721
0.0071097498
0.030065956
0.035579057
0.030868791
0.024265224
0.025689865
0.032711238
0.045265456
0.061440145
0.077932821
0.044153194
0.058471561
0.075485171
0.092832351
0.10749799
0.11876639
0.12599727
0.12798469
0.11670103
0.072442349
-0.00053294122
-0.067213216
-0.10492755
-0.10283792
-0.069804265
-0.021744301
0.018522625
0.037248178
0.037411888
0.030616846
0.02795664
0.031799013
0.040857194
0.053489082
0.067187146
0.031918988
0.041144291
0.054906353
0.071524183
0.08737511
0.10089875
0.11097133
0.11464486
0.10807022
0.076940235
0.010089702
-0.069669018
-0.12676119
-0.14153203
-0.11469773
-0.060807694
-0.0048160781
0.030917093
0.041565008
0.03836308
0.03433076
0.034852314
0.040200841
0.048919629
0.059645634
0.025102967
0.027025498
0.035121982
0.048856275
0.064448444
0.079337766
0.092200902
0.099303554
0.096574347
0.077120364
0.025977373
-0.053622409
-0.1282706
-0.16523519
-0.15341336
-0.10274199
-0.03718686
0.01543275
0.04013829
0.044359231
0.042425259
0.041267878
0.043125648
0.048088128
0.055509396
0.025634609
0.018359864
0.018189678
0.026139094
0.039057335
0.053811474
0.068645016
0.079870548
0.081816542
0.071117044
0.038336174
-0.02675049
-0.1072873
-0.16575332
-0.17620852
-0.13783997
-0.071869484
-0.007030589
0.032700444
0.046661118
0.049485201
0.049220459
0.048855361
0.050296332
0.0539747
0.035187811
0.017445519
0.0067885565
0.0056223128
0.012274128
0.024243161
0.039647297
0.054902099
0.062745424
0.059308298
0.041920922
-0.00051430015
-0.070556277
-0.14063623
-0.17434571
-0.15671787
-0.10004576
-0.031257838
0.020959952
0.045253003
0.05386162
0.056627348
0.055987479
0.054873286
0.05520613
0.053802135
0.025974567
0.0038057053
-0.009509127
-0.013525172
-0.0085293989
0.0048515406
0.023357548
0.038132942
0.042396472
0.036353957
0.016009696
-0.030608258
-0.095855351
-0.14578444
-0.15177303
-0.11325372
-0.050207661
0.0084431891
0.041741631
0.05564539
0.062186081
0.062999203
0.060744221
0.058579028
0.080565465
0.045155014
0.011448257
-0.01550803
-0.034503445
-0.041887743
-0.034927543
-0.015329274
0.0067966677
0.020388147
0.023821872
0.02009698
0.00061222545
-0.044051727
-0.095742118
-0.12139057
-0.10539918
-0.057238101
-4.6169709e-05
0.038432264
0.056331622
0.065861441
0.068856492
0.066846198
0.063291804
0.11277729
0.073642481
0.031598117
-0.008766225
-0.045705124
-0.071128651
-0.076697534
-0.060311869
-0.032048039
-0.007423372
0.0063150596
0.014261646
0.017185695
0.0012084456
-0.035965624
-0.069987435
-0.075086671
-0.046939506
0.00085346281
0.038544929
0.058134323
0.068661552
0.073386371
0.072419615
0.068503882
0.14675689
0.10839584
0.062900475
0.012389242
-0.041599653
-0.089847486
-0.11494788
-0.10836631
-0.077752264
-0.041907009
-0.015571996
0.0024527633
0.020261503
0.03115758
0.019883034
-0.0076473896
-0.025906923
-0.018394008
0.012857113
0.045295328
0.062818438
0.072057609
0.07719407
0.077274805
0.073667073
0.17869984
0.14518152
0.10184624
0.047202743
-0.020270987
-0.090618001
-0.14220254
-0.15368761
-0.1272259
-0.082791669
-0.04233397
-0.012861561
0.014745915
0.044641733
0.061417283
0.053089119
0.033854386
0.025728492
0.038327458
0.05938539
0.07185226
0.077575238
0.08138525
0.081808494
0.078651944
0.20542562
0.17965279
0.1433357
0.091630948
0.018852901
-0.070359323
-0.15005958
-0.18845661
-0.17481041
-0.12746872
-0.074018265
-0.031224943
0.005019229
0.046038326
0.08503325
0.1015145
0.093444982
0.078974533
0.075530671
0.082433986
0.086781944
0.086518089
0.087240627
0.086844082
0.08375305
0.22483551
0.20827706
0.18202609
0.13932354
0.070829561
-0.027019763
-0.13205622
-0.20404726
-0.21330632
-0.17106742
-0.10895328
-0.052677733
-0.006995576
0.040748707
0.093379328
0.13229373
0.14302114
0.13269468
0.1197479
0.11325827
0.10766189
0.1000196
0.095931696
0.09333585
0.08955106
0.23608912
0.22881363
0.2136159
0.18358961
0.12723238
0.033832968
-0.085284306
-0.19068615
-0.23537934
-0.20778963
-0.14388975
-0.076332706
-0.020585874
0.032411507
0.091791835
0.14627353
0.1767642
0.1786169
0.16446202
0.14866586
0.13362263
0.11825329
0.10825845
0.10220321
0.096800489
0.23936072
0.240512
0.23566447
0.21914415
0.17910317
0.10129122
-0.015934931
-0.14340433
-0.22835664
-0.23159861
-0.17496276
-0.1008317
-0.035097046
0.023064005
0.085204119
0.1479869
0.19415866
0.2112769
0.20321728
0.18422356
0.16256967
0.14048651
0.12440064
0.11404806
0.10616138
0.23546563
0.24372163
0.24771647
0.24311768
0.2196523
0.16339158
0.062236994
-0.068312817
-0.18486337
-0.23053504
-0.19653059
-0.12488061
-0.050289347
0.013516455
0.076926815
0.14254698
0.19835691
0.22927446
0.23150872
0.2155257
0.19159838
0.16514927
0.14382787
0.12898327
0.11805724
0.22561487
0.2392297
0.25060859
0.25521767
0.24596581
0.21090252
0.13444994
0.017574697
-0.10936353
-0.19464098
-0.19876325
-0.14116456
-0.065171859
0.0035372818
0.068277475
0.13388241
0.19374136
0.23442166
0.24781186
0.23937599
0.21771023
0.19012853
0.16532869
0.14655631
0.13252938
0.21143082
0.22975235
0.24581448
0.25692338
0.25850916
0.24024583
0.18945332
0.096451983
-0.021392309
-0.1257606
-0.17128283
-0.14432811
-0.077863901
-0.00634724
0.05905655
0.12435586
0.18433472
0.23024751
0.25337093
0.25449772
0.23855341
0.21320312
0.18720095
0.16577896
0.14916119
0.19320457
0.21489159
0.23431655
0.25040174
0.2593728
0.25307957
0.2225154
0.15615117
0.058126248
-0.043653173
-0.11437052
-0.12451544
-0.080891704
-0.014770023
0.051728608
0.11537714
0.17325545
0.22088193
0.25112502
0.26133423
0.25293034
0.23246763
0.20757024
0.18528267
0.16710253
0.17162773
0.19627834
0.21833651
0.2376352
0.2514481
0.25326794
0.23610304
0.19173902
0.11698558
0.028922356
-0.045304013
-0.081749022
-0.067695314
-0.017402392
0.044988454
0.10629953
0.16256436
0.20984919
0.24421598
0.2613782
0.26086846
0.24656956
0.22475541
0.20356222
0.18519574
0.14708647
0.1745147
0.19889752
0.22039654
0.23718492
0.24480162
0.23599262
0.20602785
0.15158397
0.080270244
0.014242845
-0.030060139
-0.038621029
-0.0098472529
0.041393771
0.098424639
0.15211908
0.1985915
0.2344171
0.25625729
0.26341981
0.25473151
0.23757794
0.21924174
0.20216795
0.11978126
0.14985242
0.17662222
0.19997374
0.21873679
0.23018008
0.2274387
0.20615158
0.16511965
0.10920168
0.053361486
0.01270085
-0.0047438752
0.0070305062
0.043523486
0.092395104
0.14229358
0.18709057
0.22318007
0.24794078
0.26000292
0.25659436
0.24549501
0.23129739
0.2168296
0.090003662
0.12228635
0.1516682
0.17710009
0.1975326
0.21143337
0.21355451
0.19837339
0.16535075
0.11979723
0.072781986
0.037918124
0.02055425
0.024717078
0.04987282
0.089027971
0.13305199
0.1749362
0.21039734
0.23681093
0.25180887
0.25446359
0.24845503
0.23914221
0.22822226
0.058538946
0.091835294
0.1237706
0.15186575
0.17434831
0.19007632
0.19610166
0.18631916
0.15885155
0.11944861
0.07791338
0.046956076
0.031896146
0.034289459
0.054160225
0.086440375
0.12431149
0.16220138
0.19605881
0.22281351
0.23988722
0.24727824
0.24675943
0.24262028
0.23575527
0.027171354
0.059077501
0.09255036
0.12370574
0.14916798
0.16703197
0.17605498
0.1714523
0.1495011
0.11438771
0.075625053
0.045334972
0.031056174
0.033223219
0.051217232
0.080702125
0.11473863
0.14891869
0.1804122
0.20666894
0.22570106
0.23739325
0.24229174
0.24198429
0.23924121
-0.00078782079
0.02584744
0.058151431
0.091715318
0.12109134
0.14229011
0.15410671
0.15426884
0.13798571
0.10715016
0.070852052
0.039450558
0.022558913
0.023239009
0.040176922
0.069152204
0.10245279
0.13476446
0.16421423
0.18977786
0.21037272
0.22529423
0.23418352
0.23785402
0.23883492
-0.020904769
-0.004398224
0.022162167
0.055407782
0.088598472
0.11466614
0.13035709
0.13491611
0.12482597
0.098683123
0.064609932
0.032979993
0.011766371
0.0075621351
0.022113355
0.051109538
0.08589898
0.1189445
0.14790165
0.17305687
0.19453568
0.21160782
0.22352358
0.23080903
0.23491736
-0.029026077
-0.026897359
-0.011690541
0.015955468
0.050377447
0.082021987
0.10364457
0.11335782
0.10970378
0.089588093
0.057931968
0.026065762
0.0014841574
-0.0096063669
-0.0010879885
0.026563937
0.063835748
0.10000524
0.1307253
0.15639257
0.17841522
0.19681742
0.21093557
0.22096267
0.22784847
-0.02212026
-0.036794372
-0.037826112
-0.022707332
0.0068955534
0.042130446
0.071537613
0.088599737
0.092087439
0.079616434
0.051692534
0.019263987
-0.008277363
-0.025796977
-0.026277675
-0.0037495112
0.035238637
0.076206774
0.11106267
0.13884285
0.16175684
0.18112138
0.19682364
0.20897046
0.21831238
-0.00068714174
-0.030651609
-0.05024312
-0.053928165
-0.037826235
-0.0053220196
0.031159605
0.058382548
0.070938197
0.067654027
0.04663446
0.014180944
-0.017026237
-0.040738545
-0.050730986
-0.037643859
-0.00021609822
0.045970981
0.087109236
0.11904259
0.14388753
0.16438952
0.18137793
0.19521799
0.20658389
0.031863524
-0.0079350838
-0.044189356
-0.070021122
-0.075810171
-0.056246168
-0.018428702
0.019666678
0.044422149
0.052159171
0.041553332
0.013113565
-0.022161762
-0.052592777
-0.072880303
-0.072126389
-0.041180853
0.0083639283
0.057213917
0.095553562
0.12388975
0.14620781
0.16457566
0.17992521
0.19299036
0.069342471
0.026851735
-0.019729371
-0.064854751
-0.097493899
-0.10112699
-0.073121428
-0.028801608
0.0098612678
0.031541622
0.033916865
0.015413462
-0.019786771
-0.058930429
-0.088357558
-0.10417759
-0.084209462
-0.035833469
0.020290211
0.067021352
0.10075637
0.1259856
0.14620566
0.16313708
0.17774344
0.10550338
0.066938392
0.018620911
-0.038272162
-0.094137254
-0.12830155
-0.12229469
-0.08303634
-0.033870207
0.0037349335
0.021539901
0.01732427
-0.0098672298
-0.05272764
-0.097000407
-0.13039387
-0.12358234
-0.082932606
-0.023022101
0.032646712
0.073601087
0.10309147
0.12592851
0.14474526
0.16092114
0.13546616
0.10551331
0.063126622
0.0049442639
-0.065955098
-0.12843054
-0.15305502
-0.13215883
-0.083015803
-0.031996763
0.0025512782
0.015058979
0.0026876899
-0.034201296
-0.085790522
-0.1338164
-0.15125882
-0.12560577
-0.068935226
-0.0067284819
0.042170675
0.077099301
0.10340658
0.12456656
0.14250092
0.15616969
0.13728196
0.10586087
0.055530547
-0.017665251
-0.099213775
-0.15594934
-0.16341928
-0.12759142
-0.072344515
-0.023370341
0.0062636041
0.012011999
-0.0098574259
-0.057105167
-0.11523311
-0.15599268
-0.15368685
-0.10976389
-0.047395368
0.0077159437
0.048265908
0.078563156
0.1024861
0.12243622
0.16642469
0.1590717
0.14064748
0.10400443
0.040084845
-0.046360964
-0.12717747
-0.16780877
-0.15641852
-0.109258
-0.053275356
-0.0092063188
0.014517993
0.012301239
-0.019710855
-0.075517159
-0.1321542
-0.15715396
-0.13509734
-0.08232671
-0.026175586
0.01816586
0.051992239
0.078700213
0.10078217
0.16647831
0.16984976
0.16407158
0.14311885
0.095859976
0.017880176
-0.072578546
-0.14165411
-0.16185397
-0.13405001
-0.08136119
-0.028793788
0.0096503067
0.027048407
0.016292681
-0.024777687
-0.083355374
-0.12933276
-0.13553919
-0.10231432
-0.053496196
-0.0098047742
0.025412266
0.054049729
0.077870321
0.1570803
0.16996091
0.17535371
0.16901609
0.14077419
0.080255023
-0.0049585892
-0.089397362
-0.13998683
-0.14006385
-0.10165137
-0.04858241
-0.00063461618
0.032733545
0.043813577
0.025078422
-0.021173398
-0.074670196
-0.10540357
-0.098163176
-0.066651436
-0.030576838
0.001934107
0.030270315
0.054559306
0.14000668
0.16090892
0.17514241
0.18104702
0.17024513
0.13084879
0.060955686
-0.022852396
-0.094081306
-0.12393815
-0.10854698
-0.06471784
-0.01367429
0.030500447
0.059619326
0.064904766
0.040460552
-0.0056095054
-0.049248978
-0.067306412
-0.058753249
-0.038090223
-0.014242669
0.01015747
0.032604933
0.11609682
0.14359284
0.1654352
0.1805754
0.18377113
0.16459711
0.11448165
0.042504727
-0.033399817
-0.086848757
-0.098519509
-0.07264987
-0.026599857
0.022505465
0.064270497
0.089879075
0.090203604
0.062702102
0.020630046
-0.013757052
-0.028654225
-0.027975623
-0.018690375
-0.0027610305
0.014667418
0.086548474
0.11932011
0.14739603
0.16984656
0.18339085
0.18054718
0.15093602
0.095081768
0.027366806
-0.035861659
-0.070890777
-0.06823464
-0.035380906
0.011666935
0.060037205
0.10057469
0.12243179
0.11794533
0.08930744
0.051353628
0.019921157
0.00065262625
-0.0076139616
-0.0049562329
0.0039061053
0.053017333
0.089105026
0.12231819
0.15066346
0.17185389
0.18094135
0.16936153
0.13099651
0.075735576
0.016382656
-0.03119021
-0.049581767
-0.035533857
0.0026134309
0.049837225
0.099420404
0.1382068
0.1542716
0.14475591
0.11475174
0.07746919
0.043750491
0.018905365
0.0063366455
0.0032719939
0.018176675
0.05441006
0.091067634
0.1244994
0.15164227
0.16916752
0.17122805
0.15025244
0.10785577
0.057861461
0.0098801288
-0.021288367
-0.024959833
-0.0011833407
0.041391233
0.08597022
0.14141468
0.17238357
0.18120727
0.16584406
0.1329616
0.093502628
0.057180638
0.030989501
0.015027912
-0.013700173
0.017910696
0.054859377
0.09202993
0.12460257
0.14849591
0.16001696
0.15350098
0.12526708
0.08413777
0.042016458
0.0074954207
-0.0076907017
0.0019309706
0.034336028
0.080484203
0.13940217
0.17562787
0.19884393
0.19926811
0.17758707
0.14122811
0.10073878
0.065516441
0.038447396
-0.037549399
-0.015739099
0.016103345
0.054115228
0.091199419
0.12120617
0.13968458
0.14356618
0.12882048
0.097486427
0.061035176
0.028600819
0.0086077511
0.0084688953
0.030124443
0.069648494
0.11993882
0.16853223
0.20077738
0.21484426
0.20681564
0.17992841
0.14249932
0.10436433
0.070653588
-0.048713009
-0.041359827
-0.020207898
0.01268229
0.051856863
0.087522786
0.11305357
0.12434852
0.12016288
0.099531046
0.069076252
0.039168775
0.017948351
0.012622457
0.026274118
0.058097002
0.10243429
0.15048074
0.19095555
0.21553255
0.22028542
0.20569277
0.17668859
0.14163233
0.10671529
-0.044937277
-0.053637883
-0.048346332
-0.026853646
0.0076984823
0.047458189
0.080113556
0.099593896
0.10274454
0.091395885
0.068180592
0.04109996
0.019142189
0.01037835
0.01915112
0.044832431
0.083836538
0.12913418
0.17216234
0.20440734
0.22010941
0.21784693
0.19991551
0.17249739
0.14133187
-0.026841919
-0.050367445
-0.06201642
-0.058169394
-0.035393927
0.0011391791
0.040719062
0.068946598
0.081149911
0.076193699
0.059850413
0.036530591
0.01413035
0.0017140587
0.0061905842
0.027981782
0.062988546
0.10541282
0.14848655
0.18506345
0.20925532
0.21783047
0.21132039
0.19391345
0.17017395
0.00046442317
-0.031179771
-0.058559597
-0.073621257
-0.07049377
-0.045043196
-0.0061008793
0.032233402
0.0546103
0.058725422
0.046702478
0.027230102
0.0053373985
-0.011111411
-0.012289785
0.0056400719
0.038642611
0.079393883
0.12186749
0.16055272
0.19048798
0.20791754
0.2114756
0.20486376
0.19038893
0.03207977
-0.0023032421
-0.037846483
-0.07033495
-0.088519286
-0.083642606
-0.053560254
-0.012532355
0.022920811
0.038117612
0.033880759
0.016083157
-0.0053223278
-0.024771796
-0.033560216
-0.022059251
0.0087791953
0.049947342
0.092909305
0.13288128
0.16643748
0.19051137
0.20313837
0.20577237
0.20085274
0.061316948
0.030998965
-0.0065552202
-0.047654285
-0.085829525
-0.10412191
-0.094058392
-0.058448018
-0.016738163
0.013866734
0.020686442
0.0082437084
-0.014248009
-0.036933568
-0.052708467
-0.051733025
-0.02674117
0.014863444
0.060449877
0.10266729
0.13886857
0.16766702
0.18736958
0.19806873
0.20185242
0.084123963
0.061821071
0.029608756
-0.013142296
-0.06157714
-0.10305152
-0.1163967
-0.098147716
-0.057910731
-0.017693887
0.0059616223
0.0034299382
-0.016814135
-0.043250919
-0.066392797
-0.076532888
-0.063740821
-0.026065305
0.022460693
0.068889203
0.10840017
0.14087686
0.16595123
0.1834647
0.1944824
0.097797483
0.085704511
0.063049949
0.026800268
-0.023668948
-0.078044579
-0.11693311
-0.12118504
-0.093742682
-0.051274696
-0.015091501
-0.00042531417
-0.012682488
-0.04013914
-0.069756903
-0.091640282
-0.093659055
-0.068017379
-0.020948188
0.030115944
0.074438191
0.11080287
0.14021416
0.16306349
0.17992461
0.10083093
0.10020255
0.088562809
0.06378105
0.020437468
-0.037141083
-0.092721273
-0.12368312
-0.11581255
-0.080766591
-0.039034315
-0.0094801119
-0.0050265368
-0.02659874
-0.060423713
-0.091912157
-0.10998058
-0.10140889
-0.064531035
-0.012944496
0.036381306
0.077341305
0.11090854
0.1381581
0.15989843
0.094741278
0.10331166
0.10414789
0.091436637
0.061925159
0.010149289
-0.050184015
-0.10195729
-0.12067383
-0.10014961
-0.060798753
-0.022646774
-0.0015392599
-0.0073905987
-0.037152059
-0.07587899
-0.10683615
-0.11819036
-0.098630929
-0.054953045
-0.0043854841
0.040701178
0.078371417
0.10957754
0.13539031
0.079222548
0.097647104
0.10725684
0.108482
0.092151977
0.056107482
-0.0017395439
-0.059841075
-0.10281702
-0.10835629
-0.075447813
-0.036546837
-0.0037447506
0.0082008462
-0.0069878119
-0.043072448
-0.084130825
-0.11159659
-0.11487677
-0.086908708
-0.042741723
0.0028278977
0.043401646
0.077981273
0.10729806
0.058888149
0.081644449
0.10131232
0.11130896
0.11138149
0.088804938
0.047014588
-0.012321202
-0.064386622
-0.093687347
-0.076498931
-0.047342197
-0.01019366
0.016121744
0.019269895
-0.0034480566
-0.04316055
-0.083318366
-0.10529098
-0.10022981
-0.070874913
-0.031485817
0.0082858297
0.044563522
0.076500288
0.033081938
0.060796021
0.084364493
0.10511585
0.11389439
0.11091369
0.080875947
0.036495098
-0.019992581
-0.062451721
-0.075212243
-0.05194695
-0.017272208
0.016449218
0.035750163
0.031208491
0.0032539764
-0.037232069
-0.073968005
-0.089840652
-0.080790311
-0.055668382
-0.0225605
0.011799689
0.044348383
0.008611511
0.034147647
0.062813436
0.087118079
0.10768249
0.11349292
0.10547779
0.069545409
0.026101837
-0.024037545
-0.053947746
-0.052714411
-0.023623758
0.01305514
0.042146854
0.054471303
0.043646463
0.012669604
-0.026346206
-0.058223226
-0.069998837
-0.063173308
-0.043611635
-0.016293995
0.013201902
0.0082324069
0.035739627
0.064623604
0.089151045
0.10754057
0.10885318
0.09459433
0.056495859
0.016483986
-0.024084854
-0.040512143
-0.027607083
0.0057499041
0.042182457
0.06620309
0.072057393
0.056424194
0.024275267
-0.012013864
-0.039969616
-0.052264215
-0.049695377
-0.035020228
-0.013035709
0.0075627348
0.037861018
0.065671066
0.089369359
0.10329941
0.099254099
0.079126518
0.042766794
0.0079717962
-0.020482628
-0.023813441
-0.0016628715
0.034236418
0.068997671
0.088011016
0.088236407
0.069114088
0.036825492
0.0026787785
-0.024510616
-0.039174252
-0.0402433
-0.0300822
0.0069980299
0.039970765
0.065197487
0.086454115
0.09404366
0.084739589
0.060656185
0.028656832
0.00093940564
-0.014078956
-0.0055444996
0.02351991
0.060854475
0.092117365
0.10645166
0.10183049
0.080022715
0.047553726
0.013824069
-0.013983061
-0.030230338
-0.034431586
0.006774495
0.04099814
0.062391973
0.079299162
0.079548991
0.065792873
0.040440999
0.014347373
-0.0043942427
-0.0059583118
0.012733134
0.046510356
0.08302705
0.11026619
0.11986663
0.11100549
0.086888611
0.053828057
0.020245732
-0.0070218991
-0.024467038
0.0068880169
0.039983663
0.056550906
0.067312225
0.059896652
0.043440014
0.019185326
0.00025271097
-0.0080834521
0.0028429698
0.029649236
0.065848519
0.099945825
0.12246906
0.12713438
0.11457755
0.088725434