/*--------------------------------*- C++ -*----------------------------------*\
| =========                 |                                                 |
| \\      /  F ield         | OpenFOAM: The Open Source CFD Toolbox           |
|  \\    /   O peration     | Version:  2112                                  |
|   \\  /    A nd           | Website:  www.openfoam.com                      |
|    \\/     M anipulation  |                                                 |
\*---------------------------------------------------------------------------*/
FoamFile
{
    version     2.0;
    format      ascii;
    arch        "LSB;label=32;scalar=64";
    class       pointScalarField;
    location    "0";
    object      streamFunction;
}
// * * * * * * * * * * * * * * * * * * * * * * * * * * * * * * * * * * * * * //

dimensions      [0 3 -1 0 0 0 0];

internalField   nonuniform List<scalar> 
4222
(
3.03e-06
0.0707281
0.135861
0.196675
0.254086
0.308769
0.361231
0.411866
0.460977
0.508807
0.555535
3.05e-06
0.0761272
0.146236
0.211702
0.273512
0.332392
0.388889
0.443425
0.496325
0.547851
0.598214
3.12e-06
0.081063
0.155721
0.225439
0.291271
0.353988
0.414172
0.472269
0.528626
0.583521
0.63718
3.76e-06
0.0855031
0.164253
0.237798
0.307247
0.373416
0.436916
0.498218
0.557678
0.615584
0.672153
3.82e-06
0.0894178
0.171776
0.248695
0.321336
0.390552
0.456982
0.521116
0.58333
0.643921
0.703122
4.16e-06
0.092781
0.17824
0.258059
0.333444
0.405282
0.474235
0.540815
0.605413
0.668341
0.729846
4.03e-06
0.0955696
0.183599
0.265824
0.343488
0.417503
0.488556
0.557173
0.62376
0.688643
0.75208
4.35e-06
0.0977645
0.187818
0.271937
0.351395
0.427128
0.499836
0.570063
0.638223
0.704653
0.769618
4.13e-06
0.09935
0.190866
0.276354
0.35711
0.434083
0.50799
0.579381
0.64868
0.716229
0.782302
4.986e-06
0.100315
0.192721
0.279043
0.360588
0.438318
0.512954
0.585054
0.655046
0.723275
0.790019
4.477e-06
0.100652
0.19337
0.279983
0.361804
0.439798
0.514689
0.587035
0.657267
0.725731
0.792706
3.03e-06
0.0707281
0.135861
0.196675
0.254086
0.308769
0.361231
0.411866
0.460977
0.508807
0.555535
3.05e-06
0.0761272
0.146236
0.211702
0.273512
0.332392
0.388889
0.443425
0.496325
0.547851
0.598214
3.12e-06
0.081063
0.155721
0.225439
0.291271
0.353988
0.414172
0.472269
0.528626
0.583521
0.63718
3.76e-06
0.0855031
0.164253
0.237798
0.307247
0.373416
0.436916
0.498218
0.557678
0.615584
0.672153
3.82e-06
0.0894178
0.171776
0.248695
0.321336
0.390552
0.456982
0.521116
0.58333
0.643921
0.703122
4.16e-06
0.092781
0.17824
0.258059
0.333444
0.405282
0.474235
0.540815
0.605413
0.668341
0.729846
4.03e-06
0.0955696
0.183599
0.265824
0.343488
0.417503
0.488556
0.557173
0.62376
0.688643
0.75208
4.35e-06
0.0977645
0.187818
0.271937
0.351395
0.427128
0.499836
0.570063
0.638223
0.704653
0.769618
4.13e-06
0.09935
0.190866
0.276354
0.35711
0.434083
0.50799
0.579381
0.64868
0.716229
0.782302
4.986e-06
0.100315
0.192721
0.279043
0.360588
0.438318
0.512954
0.585054
0.655046
0.723275
0.790019
4.477e-06
0.100652
0.19337
0.279983
0.361804
0.439798
0.514689
0.587035
0.657267
0.725731
0.792706
0
0
-4.2e-07
-8.6e-07
-1.08e-06
-1.14e-06
-1.16e-06
-1.09e-06
-1.11e-06
-1.11e-06
-1.04e-06
0
0.00779954
0.0149785
0.0216756
0.0279907
0.0339972
0.0397504
0.0452935
0.0506605
0.0558793
0.0609736
8.6e-07
0.0155548
0.0298723
0.0432291
0.055824
0.0678032
0.0792768
0.0903303
0.101031
0.111433
0.121582
1.42e-06
0.0232212
0.044596
0.0645372
0.0833413
0.101226
0.118356
0.134856
0.150827
0.166347
0.181483
1.86e-06
0.0307548
0.0590651
0.0854782
0.110387
0.134079
0.15677
0.178626
0.199775
0.220321
0.240347
2.07e-06
0.0381115
0.0731955
0.105931
0.136805
0.166175
0.194306
0.221401
0.247616
0.273074
0.297871
2.32e-06
0.0452476
0.0869036
0.125776
0.162444
0.197331
0.230754
0.262952
0.294106
0.324354
0.3538
2.2e-06
0.0521198
0.100106
0.144892
0.187147
0.227361
0.2659
0.303044
0.338999
0.373924
0.407927
2.17e-06
0.0586851
0.11272
0.163159
0.210758
0.256073
0.29952
0.341421
0.38202
0.421512
0.460039
2.25e-06
0.0649013
0.124664
0.180458
0.233121
0.283272
0.331375
0.377794
0.422813
0.466682
0.509635
0
0
-4.2e-07
-8.6e-07
-1.08e-06
-1.14e-06
-1.16e-06
-1.09e-06
-1.11e-06
-1.11e-06
-1.04e-06
0
0.00779954
0.0149785
0.0216756
0.0279907
0.0339972
0.0397504
0.0452935
0.0506605
0.0558793
0.0609736
8.6e-07
0.0155548
0.0298723
0.0432291
0.055824
0.0678032
0.0792768
0.0903303
0.101031
0.111433
0.121582
1.42e-06
0.0232212
0.044596
0.0645372
0.0833413
0.101226
0.118356
0.134856
0.150827
0.166347
0.181483
1.86e-06
0.0307548
0.0590651
0.0854782
0.110387
0.134079
0.15677
0.178626
0.199775
0.220321
0.240347
2.07e-06
0.0381115
0.0731955
0.105931
0.136805
0.166175
0.194306
0.221401
0.247616
0.273074
0.297871
2.32e-06
0.0452476
0.0869036
0.125776
0.162444
0.197331
0.230754
0.262952
0.294106
0.324354
0.3538
2.2e-06
0.0521198
0.100106
0.144892
0.187147
0.227361
0.2659
0.303044
0.338999
0.373924
0.407927
2.17e-06
0.0586851
0.11272
0.163159
0.210758
0.256073
0.29952
0.341421
0.38202
0.421512
0.460039
2.25e-06
0.0649013
0.124664
0.180458
0.233121
0.283272
0.331375
0.377794
0.422813
0.466682
0.509635
-1.01e-06
-9.5e-07
-9.5e-07
-7.78e-07
-8.18e-07
-6.62e-07
-7.09e-07
-5.68e-07
-5.72e-07
-4.16e-07
-4.202e-07
-3.2512e-07
-3.5722e-07
-3.0692e-07
-3.1892e-07
-3.1392e-07
-3.1592e-07
-2.9092e-07
-3.6292e-07
-3.3692e-07
0.0625252
0.0637964
0.064832
0.0656686
0.0663367
0.0668618
0.0672656
0.0675658
0.0677772
0.0679116
0.0679783
0.0679847
0.0679365
0.0678384
0.0676938
0.0675055
0.0672757
0.067006
0.0666976
0.0663513
0.12469
0.127246
0.129335
0.131027
0.132384
0.133458
0.134289
0.134916
0.135365
0.135661
0.135821
0.13586
0.135789
0.135618
0.135352
0.134999
0.134562
0.134045
0.13345
0.132779
0.186165
0.190033
0.193204
0.195786
0.197871
0.199535
0.200842
0.201844
0.202583
0.203093
0.203399
0.203521
0.203477
0.203279
0.202939
0.202465
0.201866
0.201145
0.200308
0.199357
0.246619
0.251833
0.256128
0.25965
0.26252
0.264841
0.266695
0.268149
0.269257
0.270057
0.270584
0.270862
0.270916
0.27076
0.270413
0.269885
0.269188
0.268329
0.267315
0.26615
0.30574
0.312339
0.317808
0.322334
0.32607
0.329139
0.33164
0.333648
0.335223
0.336412
0.337253
0.337779
0.338018
0.337993
0.337725
0.337229
0.336522
0.335612
0.334508
0.333216
0.363249
0.371261
0.377963
0.38358
0.38829
0.392227
0.395497
0.398177
0.400332
0.402017
0.403278
0.404155
0.404685
0.404894
0.404811
0.404456
0.403846
0.402994
0.401911
0.400603
0.418898
0.428339
0.436355
0.443189
0.449013
0.453953
0.458115
0.461581
0.464428
0.466719
0.468513
0.469858
0.470798
0.471367
0.471597
0.471511
0.471131
0.47047
0.46954
0.468348
0.472462
0.483364
0.492843
0.501051
0.50812
0.514172
0.519323
0.523673
0.527316
0.530329
0.532781
0.534728
0.536221
0.537297
0.537992
0.538331
0.538336
0.538023
0.537404
0.536485
0.523635
0.536206
0.547346
0.557031
0.565404
0.572626
0.578845
0.584181
0.588744
0.592619
0.595883
0.598595
0.60081
0.602568
0.603905
0.604848
0.605419
0.605634
0.605505
0.605038
0.571408
0.585812
0.598707
0.610038
0.619933
0.62856
0.636083
0.64264
0.64835
0.653308
0.657599
0.661287
0.664431
0.667073
0.669254
0.671
0.672336
0.673279
0.67384
0.674026
-1.01e-06
-9.5e-07
-9.5e-07
-7.78e-07
-8.18e-07
-6.62e-07
-7.09e-07
-5.68e-07
-5.72e-07
-4.16e-07
-4.202e-07
-3.2512e-07
-3.5722e-07
-3.0692e-07
-3.1892e-07
-3.1392e-07
-3.1592e-07
-2.9092e-07
-3.6292e-07
-3.3692e-07
0.0625252
0.0637964
0.064832
0.0656686
0.0663367
0.0668618
0.0672656
0.0675658
0.0677772
0.0679116
0.0679783
0.0679847
0.0679365
0.0678384
0.0676938
0.0675055
0.0672757
0.067006
0.0666976
0.0663513
0.12469
0.127246
0.129335
0.131027
0.132384
0.133458
0.134289
0.134916
0.135365
0.135661
0.135821
0.13586
0.135789
0.135618
0.135352
0.134999
0.134562
0.134045
0.13345
0.132779
0.186165
0.190033
0.193204
0.195786
0.197871
0.199535
0.200842
0.201844
0.202583
0.203093
0.203399
0.203521
0.203477
0.203279
0.202939
0.202465
0.201866
0.201145
0.200308
0.199357
0.246619
0.251833
0.256128
0.25965
0.26252
0.264841
0.266695
0.268149
0.269257
0.270057
0.270584
0.270862
0.270916
0.27076
0.270413
0.269885
0.269188
0.268329
0.267315
0.26615
0.30574
0.312339
0.317808
0.322334
0.32607
0.329139
0.33164
0.333648
0.335223
0.336412
0.337253
0.337779
0.338018
0.337993
0.337725
0.337229
0.336522
0.335612
0.334508
0.333216
0.363249
0.371261
0.377963
0.38358
0.38829
0.392227
0.395497
0.398177
0.400332
0.402017
0.403278
0.404155
0.404685
0.404894
0.404811
0.404456
0.403846
0.402994
0.401911
0.400603
0.418898
0.428339
0.436355
0.443189
0.449013
0.453953
0.458115
0.461581
0.464428
0.466719
0.468513
0.469858
0.470798
0.471367
0.471597
0.471511
0.471131
0.47047
0.46954
0.468348
0.472462
0.483364
0.492843
0.501051
0.50812
0.514172
0.519323
0.523673
0.527316
0.530329
0.532781
0.534728
0.536221
0.537297
0.537992
0.538331
0.538336
0.538023
0.537404
0.536485
0.523635
0.536206
0.547346
0.557031
0.565404
0.572626
0.578845
0.584181
0.588744
0.592619
0.595883
0.598595
0.60081
0.602568
0.603905
0.604848
0.605419
0.605634
0.605505
0.605038
0.571408
0.585812
0.598707
0.610038
0.619933
0.62856
0.636083
0.64264
0.64835
0.653308
0.657599
0.661287
0.664431
0.667073
0.669254
0.671
0.672336
0.673279
0.67384
0.674026
0.624167
0.63875
0.651976
0.663906
0.674556
0.683999
0.692334
0.699674
0.70612
0.711767
0.716695
0.720976
0.724667
0.727821
0.730478
0.732673
0.734433
0.735781
0.736732
0.737299
0.737487
0.694415
0.707448
0.71944
0.730385
0.740283
0.749171
0.757105
0.764157
0.770399
0.775902
0.780729
0.784941
0.788585
0.791708
0.794344
0.796526
0.798278
0.799622
0.80057
0.801136
0.801323
0.765686
0.777187
0.787952
0.797908
0.807021
0.815297
0.822759
0.82945
0.835417
0.840711
0.84538
0.849472
0.853026
0.85608
0.858665
0.860809
0.862533
0.863857
0.864792
0.86535
0.865535
0.837537
0.847664
0.857276
0.866273
0.874599
0.882236
0.889185
0.895467
0.901108
0.906145
0.91061
0.91454
0.917966
0.920921
0.923428
0.925511
0.927189
0.928479
0.929392
0.929936
0.930117
0.909732
0.918658
0.927216
0.935307
0.942866
0.949862
0.956278
0.962122
0.967404
0.972148
0.976375
0.980111
0.98338
0.986209
0.988614
0.990618
0.992235
0.993479
0.99436
0.994886
0.995061
0.982149
0.99002
0.997624
1.00487
1.0117
1.01806
1.02395
1.02934
1.03424
1.03867
1.04263
1.04615
1.04924
1.05192
1.0542
1.05611
1.05765
1.05884
1.05968
1.06019
1.06035
1.05471
1.06165
1.06839
1.07486
1.08099
1.08675
1.0921
1.09704
1.10155
1.10565
1.10933
1.11261
1.1155
1.11802
1.12017
1.12197
1.12343
1.12455
1.12535
1.12582
1.12598
1.12737
1.13347
1.13943
1.14518
1.15066
1.15584
1.16068
1.16517
1.16929
1.17304
1.17643
1.17947
1.18215
1.18449
1.18649
1.18817
1.18953
1.19058
1.19133
1.19178
1.19193
1.20009
1.20543
1.21068
1.21577
1.22064
1.22527
1.22961
1.23366
1.23739
1.2408
1.2439
1.24667
1.24913
1.25129
1.25313
1.25469
1.25595
1.25692
1.25761
1.25803
1.25817
1.27283
1.2775
1.28209
1.28657
1.29087
1.29497
1.29884
1.30246
1.30581
1.30888
1.31168
1.31419
1.31643
1.31839
1.32008
1.32149
1.32265
1.32354
1.32418
1.32456
1.32468
1.34559
1.34963
1.35363
1.35753
1.3613
1.36491
1.36832
1.37152
1.3745
1.37724
1.37974
1.38199
1.384
1.38577
1.38729
1.38857
1.38961
1.39042
1.39099
1.39134
1.39145
1.41834
1.42182
1.42526
1.42863
1.4319
1.43504
1.43801
1.44082
1.44343
1.44584
1.44805
1.45004
1.45182
1.45339
1.45474
1.45588
1.45681
1.45753
1.45804
1.45835
1.45845
1.49108
1.49403
1.49696
1.49984
1.50263
1.50532
1.50788
1.5103
1.51256
1.51465
1.51656
1.5183
1.51985
1.52122
1.5224
1.5234
1.52421
1.52485
1.5253
1.52557
1.52566
1.5638
1.56626
1.56871
1.57112
1.57347
1.57574
1.5779
1.57994
1.58186
1.58363
1.58526
1.58674
1.58806
1.58923
1.59025
1.5911
1.5918
1.59234
1.59273
1.59296
1.59304
1.63649
1.6385
1.6405
1.64247
1.64439
1.64625
1.64803
1.64972
1.65129
1.65276
1.65411
1.65534
1.65644
1.65741
1.65825
1.65896
1.65955
1.66
1.66032
1.66052
1.66058
1.70917
1.71074
1.71231
1.71387
1.71538
1.71685
1.71826
1.71959
1.72084
1.72201
1.72308
1.72406
1.72494
1.72571
1.72638
1.72695
1.72742
1.72778
1.72804
1.7282
1.72825
1.78182
1.78298
1.78414
1.7853
1.78642
1.78751
1.78856
1.78955
1.79048
1.79135
1.79215
1.79288
1.79354
1.79412
1.79462
1.79505
1.7954
1.79567
1.79586
1.79598
1.79602
1.85446
1.85522
1.85599
1.85675
1.8575
1.85822
1.85891
1.85957
1.86018
1.86076
1.86129
1.86178
1.86221
1.8626
1.86294
1.86322
1.86345
1.86363
1.86376
1.86384
1.86387
1.92708
1.92746
1.92784
1.92822
1.92859
1.92895
1.92929
1.92962
1.92993
1.93022
1.93048
1.93072
1.93094
1.93113
1.9313
1.93144
1.93156
1.93165
1.93172
1.93175
1.93177
1.9997
1.9997
1.9997
1.9997
1.9997
1.9997
1.9997
1.9997
1.99969
1.99969
1.99969
1.99969
1.99969
1.99969
1.99969
1.99969
1.99969
1.99969
1.99969
1.99969
1.99969
0.624167
0.63875
0.651976
0.663906
0.674556
0.683999
0.692334
0.699674
0.70612
0.711767
0.716695
0.720976
0.724667
0.727821
0.730478
0.732673
0.734433
0.735781
0.736732
0.737299
0.737487
0.694415
0.707448
0.71944
0.730385
0.740283
0.749171
0.757105
0.764157
0.770399
0.775902
0.780729
0.784941
0.788585
0.791708
0.794344
0.796526
0.798278
0.799622
0.80057
0.801136
0.801323
0.765686
0.777187
0.787952
0.797908
0.807021
0.815297
0.822759
0.82945
0.835417
0.840711
0.84538
0.849472
0.853026
0.85608
0.858665
0.860809
0.862533
0.863857
0.864792
0.86535
0.865535
0.837537
0.847664
0.857276
0.866273
0.874599
0.882236
0.889185
0.895467
0.901108
0.906145
0.91061
0.91454
0.917966
0.920921
0.923428
0.925511
0.927189
0.928479
0.929392
0.929936
0.930117
0.909732
0.918658
0.927216
0.935307
0.942866
0.949862
0.956278
0.962122
0.967404
0.972148
0.976375
0.980111
0.98338
0.986209
0.988614
0.990618
0.992235
0.993479
0.99436
0.994886
0.995061
0.982149
0.99002
0.997624
1.00487
1.0117
1.01806
1.02395
1.02934
1.03424
1.03867
1.04263
1.04615
1.04924
1.05192
1.0542
1.05611
1.05765
1.05884
1.05968
1.06019
1.06035
1.05471
1.06165
1.06839
1.07486
1.08099
1.08675
1.0921
1.09704
1.10155
1.10565
1.10933
1.11261
1.1155
1.11802
1.12017
1.12197
1.12343
1.12455
1.12535
1.12582
1.12598
1.12737
1.13347
1.13943
1.14518
1.15066
1.15584
1.16068
1.16517
1.16929
1.17304
1.17643
1.17947
1.18215
1.18449
1.18649
1.18817
1.18953
1.19058
1.19133
1.19178
1.19193
1.20009
1.20543
1.21068
1.21577
1.22064
1.22527
1.22961
1.23366
1.23739
1.2408
1.2439
1.24667
1.24913
1.25129
1.25313
1.25469
1.25595
1.25692
1.25761
1.25803
1.25817
1.27283
1.2775
1.28209
1.28657
1.29087
1.29497
1.29884
1.30246
1.30581
1.30888
1.31168
1.31419
1.31643
1.31839
1.32008
1.32149
1.32265
1.32354
1.32418
1.32456
1.32468
1.34559
1.34963
1.35363
1.35753
1.3613
1.36491
1.36832
1.37152
1.3745
1.37724
1.37974
1.38199
1.384
1.38577
1.38729
1.38857
1.38961
1.39042
1.39099
1.39134
1.39145
1.41834
1.42182
1.42526
1.42863
1.4319
1.43504
1.43801
1.44082
1.44343
1.44584
1.44805
1.45004
1.45182
1.45339
1.45474
1.45588
1.45681
1.45753
1.45804
1.45835
1.45845
1.49108
1.49403
1.49696
1.49984
1.50263
1.50532
1.50788
1.5103
1.51256
1.51465
1.51656
1.5183
1.51985
1.52122
1.5224
1.5234
1.52421
1.52485
1.5253
1.52557
1.52566
1.5638
1.56626
1.56871
1.57112
1.57347
1.57574
1.5779
1.57994
1.58186
1.58363
1.58526
1.58674
1.58806
1.58923
1.59025
1.5911
1.5918
1.59234
1.59273
1.59296
1.59304
1.63649
1.6385
1.6405
1.64247
1.64439
1.64625
1.64803
1.64972
1.65129
1.65276
1.65411
1.65534
1.65644
1.65741
1.65825
1.65896
1.65955
1.66
1.66032
1.66052
1.66058
1.70917
1.71074
1.71231
1.71387
1.71538
1.71685
1.71826
1.71959
1.72084
1.72201
1.72308
1.72406
1.72494
1.72571
1.72638
1.72695
1.72742
1.72778
1.72804
1.7282
1.72825
1.78182
1.78298
1.78414
1.7853
1.78642
1.78751
1.78856
1.78955
1.79048
1.79135
1.79215
1.79288
1.79354
1.79412
1.79462
1.79505
1.7954
1.79567
1.79586
1.79598
1.79602
1.85446
1.85522
1.85599
1.85675
1.8575
1.85822
1.85891
1.85957
1.86018
1.86076
1.86129
1.86178
1.86221
1.8626
1.86294
1.86322
1.86345
1.86363
1.86376
1.86384
1.86387
1.92708
1.92746
1.92784
1.92822
1.92859
1.92895
1.92929
1.92962
1.92993
1.93022
1.93048
1.93072
1.93094
1.93113
1.9313
1.93144
1.93156
1.93165
1.93172
1.93175
1.93177
1.9997
1.9997
1.9997
1.9997
1.9997
1.9997
1.9997
1.9997
1.99969
1.99969
1.99969
1.99969
1.99969
1.99969
1.99969
1.99969
1.99969
1.99969
1.99969
1.99969
1.99969
0.858405
0.855758
0.848157
0.835665
0.818385
0.796461
0.770083
0.739476
0.704867
0.666318
0.923021
0.920441
0.913035
0.900871
0.884053
0.862727
0.837073
0.807283
0.773502
0.735732
0.986703
0.984211
0.977065
0.965335
0.949123
0.928565
0.903812
0.875008
0.84224
0.805647
1.04957
1.04719
1.04035
1.02913
1.01362
0.993925
0.970177
0.942473
0.910932
0.875821
1.11173
1.10946
1.10297
1.09231
1.07755
1.0588
1.03614
1.00967
0.979571
0.946151
1.17326
1.17112
1.16499
1.15492
1.14097
1.12321
1.10173
1.07664
1.04815
1.01657
1.23424
1.23224
1.22648
1.21702
1.20392
1.18722
1.167
1.14341
1.11666
1.08702
1.29474
1.29287
1.28749
1.27868
1.26645
1.25086
1.232
1.21
1.18507
1.15747
1.35477
1.35304
1.34809
1.33995
1.32863
1.3142
1.29675
1.27642
1.25339
1.2279
1.41446
1.41287
1.40834
1.40087
1.39049
1.37727
1.36128
1.34268
1.32162
1.29829
1.47382
1.47239
1.46827
1.4615
1.45209
1.4401
1.42563
1.40879
1.38974
1.36863
1.53291
1.53162
1.52794
1.52187
1.51346
1.50274
1.48981
1.47477
1.45776
1.43891
1.59175
1.59061
1.58737
1.58203
1.57463
1.56521
1.55384
1.54064
1.5257
1.50915
1.65038
1.64941
1.64661
1.64201
1.63563
1.62753
1.61775
1.6064
1.59356
1.57933
1.70885
1.70803
1.70569
1.70184
1.6965
1.68972
1.68156
1.67207
1.66135
1.64946
1.76718
1.76652
1.76464
1.76155
1.75727
1.75183
1.74528
1.73767
1.72908
1.71956
1.82541
1.82491
1.82349
1.82117
1.81794
1.81385
1.80893
1.80322
1.79677
1.78962
1.88355
1.88322
1.88227
1.88071
1.87856
1.87583
1.87254
1.86873
1.86442
1.85965
1.94164
1.94147
1.941
1.94022
1.93914
1.93777
1.93612
1.93421
1.93206
1.92968
1.9997
1.9997
1.99971
1.9997
1.9997
1.9997
1.99969
1.99969
1.9997
1.9997
0.858405
0.855758
0.848157
0.835665
0.818385
0.796461
0.770083
0.739476
0.704867
0.666318
0.923021
0.920441
0.913035
0.900871
0.884053
0.862727
0.837073
0.807283
0.773502
0.735732
0.986703
0.984211
0.977065
0.965335
0.949123
0.928565
0.903812
0.875008
0.84224
0.805647
1.04957
1.04719
1.04035
1.02913
1.01362
0.993925
0.970177
0.942473
0.910932
0.875821
1.11173
1.10946
1.10297
1.09231
1.07755
1.0588
1.03614
1.00967
0.979571
0.946151
1.17326
1.17112
1.16499
1.15492
1.14097
1.12321
1.10173
1.07664
1.04815
1.01657
1.23424
1.23224
1.22648
1.21702
1.20392
1.18722
1.167
1.14341
1.11666
1.08702
1.29474
1.29287
1.28749
1.27868
1.26645
1.25086
1.232
1.21
1.18507
1.15747
1.35477
1.35304
1.34809
1.33995
1.32863
1.3142
1.29675
1.27642
1.25339
1.2279
1.41446
1.41287
1.40834
1.40087
1.39049
1.37727
1.36128
1.34268
1.32162
1.29829
1.47382
1.47239
1.46827
1.4615
1.45209
1.4401
1.42563
1.40879
1.38974
1.36863
1.53291
1.53162
1.52794
1.52187
1.51346
1.50274
1.48981
1.47477
1.45776
1.43891
1.59175
1.59061
1.58737
1.58203
1.57463
1.56521
1.55384
1.54064
1.5257
1.50915
1.65038
1.64941
1.64661
1.64201
1.63563
1.62753
1.61775
1.6064
1.59356
1.57933
1.70885
1.70803
1.70569
1.70184
1.6965
1.68972
1.68156
1.67207
1.66135
1.64946
1.76718
1.76652
1.76464
1.76155
1.75727
1.75183
1.74528
1.73767
1.72908
1.71956
1.82541
1.82491
1.82349
1.82117
1.81794
1.81385
1.80893
1.80322
1.79677
1.78962
1.88355
1.88322
1.88227
1.88071
1.87856
1.87583
1.87254
1.86873
1.86442
1.85965
1.94164
1.94147
1.941
1.94022
1.93914
1.93777
1.93612
1.93421
1.93206
1.92968
1.9997
1.9997
1.99971
1.9997
1.9997
1.9997
1.99969
1.99969
1.9997
1.9997
0.558971
0.511842
0.463669
0.414211
0.363238
0.310446
0.255438
0.197703
0.136561
0.0710881
4.213e-06
0.601344
0.550655
0.49883
0.445621
0.39078
0.333979
0.274796
0.212681
0.146905
0.0764715
5.263e-06
0.639954
0.586033
0.530891
0.47427
0.415905
0.35545
0.29246
0.226349
0.156343
0.0813837
5.723e-06
0.674557
0.617781
0.559675
0.499993
0.438464
0.374729
0.308318
0.23862
0.164817
0.085794
6.173e-06
0.705159
0.645795
0.585043
0.522649
0.458325
0.391696
0.322273
0.249417
0.172272
0.0896739
6.013e-06
0.731524
0.669892
0.606838
0.542096
0.475362
0.406246
0.334236
0.25867
0.17866
0.0929986
6.263e-06
0.753408
0.689875
0.624897
0.558198
0.489461
0.41828
0.344128
0.266319
0.18394
0.0957461
5.753e-06
0.770604
0.70557
0.639072
0.570831
0.500517
0.427713
0.351878
0.272312
0.188076
0.097898
5.683e-06
0.782954
0.716838
0.649245
0.579893
0.508444
0.434474
0.357433
0.276605
0.191039
0.0994396
5.153e-06
0.790343
0.723579
0.655327
0.58531
0.513181
0.438513
0.36075
0.279169
0.192808
0.10036
4.908e-06
0.558971
0.511842
0.463669
0.414211
0.363238
0.310446
0.255438
0.197703
0.136561
0.0710881
4.213e-06
0.601344
0.550655
0.49883
0.445621
0.39078
0.333979
0.274796
0.212681
0.146905
0.0764715
5.263e-06
0.639954
0.586033
0.530891
0.47427
0.415905
0.35545
0.29246
0.226349
0.156343
0.0813837
5.723e-06
0.674557
0.617781
0.559675
0.499993
0.438464
0.374729
0.308318
0.23862
0.164817
0.085794
6.173e-06
0.705159
0.645795
0.585043
0.522649
0.458325
0.391696
0.322273
0.249417
0.172272
0.0896739
6.013e-06
0.731524
0.669892
0.606838
0.542096
0.475362
0.406246
0.334236
0.25867
0.17866
0.0929986
6.263e-06
0.753408
0.689875
0.624897
0.558198
0.489461
0.41828
0.344128
0.266319
0.18394
0.0957461
5.753e-06
0.770604
0.70557
0.639072
0.570831
0.500517
0.427713
0.351878
0.272312
0.188076
0.097898
5.683e-06
0.782954
0.716838
0.649245
0.579893
0.508444
0.434474
0.357433
0.276605
0.191039
0.0994396
5.153e-06
0.790343
0.723579
0.655327
0.58531
0.513181
0.438513
0.36075
0.279169
0.192808
0.10036
4.908e-06
-0.0002432
-0.0002352
-0.00017715
-0.00014671
-0.00011987
-9.443e-05
-7.023e-05
-4.7509e-05
-2.508e-05
-6.737e-06
0
0.0615437
0.0563482
0.0510859
0.0456578
0.0400571
0.0342511
0.0281955
0.0218333
0.0150907
0.00786244
-4.737e-06
0.122923
0.112571
0.10203
0.0911822
0.0799912
0.0683903
0.056292
0.0435833
0.030116
0.0156841
-3.037e-06
0.183519
0.16809
0.152348
0.136153
0.119444
0.10212
0.0840518
0.0650727
0.0449612
0.0234118
-1.567e-06
0.24297
0.222581
0.201745
0.180308
0.158183
0.13524
0.11131
0.0861737
0.0595377
0.0309996
-1.07e-07
0.300956
0.275745
0.249947
0.223396
0.195985
0.167557
0.137906
0.10676
0.0737581
0.0384017
1.003e-06
0.357212
0.327322
0.296702
0.26518
0.232634
0.198882
0.163681
0.126709
0.0875363
0.0455733
2.183e-06
0.411533
0.377074
0.341761
0.305421
0.267913
0.229025
0.188477
0.145896
0.100788
0.0524702
2.963e-06
0.463714
0.424732
0.384852
0.343866
0.301596
0.257794
0.212137
0.164202
0.113429
0.0590491
3.633e-06
0.513258
0.469864
0.42562
0.380225
0.333447
0.284996
0.234507
0.181508
0.125379
0.0652684
4.333e-06
-0.0002432
-0.0002352
-0.00017715
-0.00014671
-0.00011987
-9.443e-05
-7.023e-05
-4.7509e-05
-2.508e-05
-6.737e-06
0
0.0615437
0.0563482
0.0510859
0.0456578
0.0400571
0.0342511
0.0281955
0.0218333
0.0150907
0.00786244
-4.737e-06
0.122923
0.112571
0.10203
0.0911822
0.0799912
0.0683903
0.056292
0.0435833
0.030116
0.0156841
-3.037e-06
0.183519
0.16809
0.152348
0.136153
0.119444
0.10212
0.0840518
0.0650727
0.0449612
0.0234118
-1.567e-06
0.24297
0.222581
0.201745
0.180308
0.158183
0.13524
0.11131
0.0861737
0.0595377
0.0309996
-1.07e-07
0.300956
0.275745
0.249947
0.223396
0.195985
0.167557
0.137906
0.10676
0.0737581
0.0384017
1.003e-06
0.357212
0.327322
0.296702
0.26518
0.232634
0.198882
0.163681
0.126709
0.0875363
0.0455733
2.183e-06
0.411533
0.377074
0.341761
0.305421
0.267913
0.229025
0.188477
0.145896
0.100788
0.0524702
2.963e-06
0.463714
0.424732
0.384852
0.343866
0.301596
0.257794
0.212137
0.164202
0.113429
0.0590491
3.633e-06
0.513258
0.469864
0.42562
0.380225
0.333447
0.284996
0.234507
0.181508
0.125379
0.0652684
4.333e-06
-0.00032575
-0.000250703
-0.000250636
-0.000250611
-0.00025045
-0.000250385
-0.000250265
-0.000250114
-0.000250023
-0.000249899
-0.000249874
-0.000249682
-0.000249677
-0.000249489
-0.000249339
-0.000248859
-0.000248453
-0.00024772
-0.00024697
-0.00024602
0.0703849
0.0701787
0.0702111
0.0702266
0.0702217
0.0701929
0.0701362
0.0700475
0.0699219
0.0697538
0.0695365
0.0692618
0.0689195
0.0684971
0.0679793
0.0673474
0.0665795
0.0656494
0.0645259
0.0631723
0.141096
0.140589
0.140632
0.140641
0.140609
0.140528
0.140391
0.14019
0.139914
0.139552
0.139092
0.138517
0.137808
0.136939
0.135881
0.134597
0.133042
0.131165
0.128904
0.126184
0.211806
0.210987
0.210997
0.210955
0.210852
0.210674
0.210411
0.21005
0.209576
0.208972
0.20822
0.207295
0.206169
0.204807
0.203166
0.201191
0.198815
0.195961
0.192535
0.188426
0.282517
0.281366
0.281278
0.28112
0.280879
0.28054
0.280085
0.279497
0.278757
0.277841
0.276725
0.275377
0.273762
0.271836
0.269544
0.266817
0.263568
0.259692
0.255065
0.249536
0.353228
0.351717
0.351442
0.351082
0.350617
0.350029
0.349298
0.3484
0.347309
0.345995
0.344426
0.342564
0.340367
0.337782
0.334747
0.331182
0.326987
0.322033
0.316162
0.309182
0.423938
0.422033
0.421462
0.420787
0.419991
0.419049
0.417938
0.416629
0.415089
0.41328
0.411161
0.408686
0.405801
0.402448
0.398557
0.394044
0.388801
0.382688
0.375524
0.367072
0.494649
0.492301
0.491296
0.490173
0.488913
0.48749
0.485877
0.484039
0.481937
0.479526
0.476755
0.473567
0.469896
0.46567
0.46081
0.455224
0.448804
0.441416
0.432886
0.422958
0.56536
0.562511
0.56091
0.559177
0.557297
0.555243
0.552984
0.55048
0.547686
0.544551
0.541014
0.53701
0.53246
0.527277
0.521363
0.514608
0.50689
0.498081
0.488044
0.476621
0.636071
0.632664
0.630266
0.627733
0.625055
0.622201
0.619131
0.615802
0.612162
0.608154
0.603714
0.598767
0.593228
0.586999
0.579966
0.571994
0.562932
0.552609
0.54088
0.527762
0.706781
0.702824
0.699338
0.695792
0.692126
0.688286
0.684222
0.679881
0.675205
0.670131
0.664587
0.658491
0.651748
0.64425
0.635868
0.626454
0.615837
0.603839
0.590327
0.575356
-0.00032575
-0.000250703
-0.000250636
-0.000250611
-0.00025045
-0.000250385
-0.000250265
-0.000250114
-0.000250023
-0.000249899
-0.000249874
-0.000249682
-0.000249677
-0.000249489
-0.000249339
-0.000248859
-0.000248453
-0.00024772
-0.00024697
-0.00024602
0.0703849
0.0701787
0.0702111
0.0702266
0.0702217
0.0701929
0.0701362
0.0700475
0.0699219
0.0697538
0.0695365
0.0692618
0.0689195
0.0684971
0.0679793
0.0673474
0.0665795
0.0656494
0.0645259
0.0631723
0.141096
0.140589
0.140632
0.140641
0.140609
0.140528
0.140391
0.14019
0.139914
0.139552
0.139092
0.138517
0.137808
0.136939
0.135881
0.134597
0.133042
0.131165
0.128904
0.126184
0.211806
0.210987
0.210997
0.210955
0.210852
0.210674
0.210411
0.21005
0.209576
0.208972
0.20822
0.207295
0.206169
0.204807
0.203166
0.201191
0.198815
0.195961
0.192535
0.188426
0.282517
0.281366
0.281278
0.28112
0.280879
0.28054
0.280085
0.279497
0.278757
0.277841
0.276725
0.275377
0.273762
0.271836
0.269544
0.266817
0.263568
0.259692
0.255065
0.249536
0.353228
0.351717
0.351442
0.351082
0.350617
0.350029
0.349298
0.3484
0.347309
0.345995
0.344426
0.342564
0.340367
0.337782
0.334747
0.331182
0.326987
0.322033
0.316162
0.309182
0.423938
0.422033
0.421462
0.420787
0.419991
0.419049
0.417938
0.416629
0.415089
0.41328
0.411161
0.408686
0.405801
0.402448
0.398557
0.394044
0.388801
0.382688
0.375524
0.367072
0.494649
0.492301
0.491296
0.490173
0.488913
0.48749
0.485877
0.484039
0.481937
0.479526
0.476755
0.473567
0.469896
0.46567
0.46081
0.455224
0.448804
0.441416
0.432886
0.422958
0.56536
0.562511
0.56091
0.559177
0.557297
0.555243
0.552984
0.55048
0.547686
0.544551
0.541014
0.53701
0.53246
0.527277
0.521363
0.514608
0.50689
0.498081
0.488044
0.476621
0.636071
0.632664
0.630266
0.627733
0.625055
0.622201
0.619131
0.615802
0.612162
0.608154
0.603714
0.598767
0.593228
0.586999
0.579966
0.571994
0.562932
0.552609
0.54088
0.527762
0.706781
0.702824
0.699338
0.695792
0.692126
0.688286
0.684222
0.679881
0.675205
0.670131
0.664587
0.658491
0.651748
0.64425
0.635868
0.626454
0.615837
0.603839
0.590327
0.575356
0.771426
0.767637
0.763964
0.760271
0.756479
0.752528
0.748365
0.743935
0.739181
0.734044
0.728455
0.722342
0.715619
0.708194
0.699963
0.690812
0.680624
0.669289
0.656732
0.64293
0.627732
0.83607
0.832333
0.82861
0.824848
0.820991
0.816984
0.812774
0.808311
0.803541
0.798408
0.79285
0.786801
0.780192
0.772944
0.764977
0.756208
0.746558
0.735963
0.724383
0.711811
0.698162
0.900715
0.897013
0.893293
0.889522
0.885653
0.881641
0.877437
0.872995
0.868265
0.863196
0.857734
0.851822
0.845402
0.838413
0.830793
0.822484
0.813438
0.803621
0.793027
0.78168
0.769562
0.96536
0.961708
0.95803
0.954293
0.95046
0.946489
0.942339
0.937966
0.933327
0.928376
0.923067
0.917352
0.911183
0.904513
0.897297
0.889498
0.881088
0.872058
0.862423
0.85223
0.841488
1.03
1.02643
1.02282
1.01916
1.0154
1.01152
1.00746
1.0032
0.998701
0.993915
0.988807
0.983336
0.977465
0.971158
0.964385
0.957122
0.94936
0.941102
0.932377
0.923242
0.913704
1.09465
1.09118
1.08768
1.08412
1.08048
1.07671
1.07279
1.06869
1.06436
1.05978
1.05491
1.04972
1.04418
1.03827
1.03196
1.02525
1.01813
1.01061
1.00274
0.994568
0.986091
1.15929
1.15596
1.15259
1.14917
1.14567
1.14206
1.13831
1.13439
1.13027
1.12593
1.12133
1.11645
1.11127
1.10578
1.09995
1.09378
1.08729
1.08048
1.07341
1.06611
1.05858
1.22394
1.22076
1.21756
1.2143
1.21097
1.20755
1.20399
1.20029
1.19641
1.19233
1.18803
1.18349
1.17869
1.17362
1.16827
1.16264
1.15676
1.15063
1.14429
1.13779
1.13112
1.28858
1.28559
1.28257
1.27951
1.27638
1.27316
1.26983
1.26636
1.26275
1.25895
1.25497
1.25078
1.24637
1.24173
1.23686
1.23177
1.22647
1.22098
1.21533
1.20957
1.20367
1.35323
1.35044
1.34763
1.34478
1.34187
1.33888
1.3358
1.3326
1.32926
1.32577
1.32212
1.31829
1.31428
1.31008
1.30569
1.30111
1.29637
1.29149
1.28649
1.28141
1.27621
1.41787
1.41531
1.41273
1.41011
1.40744
1.40471
1.40188
1.39896
1.39592
1.39275
1.38945
1.38599
1.38238
1.37861
1.37469
1.37062
1.36642
1.36211
1.35772
1.35327
1.34873
1.48252
1.4802
1.47786
1.4755
1.47308
1.47061
1.46807
1.46544
1.46271
1.45988
1.45692
1.45384
1.45063
1.4473
1.44384
1.44026
1.43659
1.43282
1.429
1.42515
1.42122
1.54716
1.5451
1.54302
1.54092
1.53878
1.5366
1.53434
1.53202
1.52961
1.52712
1.52452
1.52182
1.51902
1.51611
1.51311
1.51001
1.50683
1.50359
1.50031
1.49702
1.49365
1.61181
1.61002
1.60821
1.60639
1.60454
1.60264
1.60069
1.59868
1.5966
1.59445
1.59222
1.58991
1.58751
1.58503
1.58247
1.57984
1.57715
1.57441
1.57165
1.56887
1.56604
1.67645
1.67494
1.67342
1.67189
1.67033
1.66873
1.6671
1.66541
1.66367
1.66187
1.66001
1.65808
1.65608
1.65402
1.6519
1.64973
1.64751
1.64525
1.64298
1.64072
1.63839
1.7411
1.73988
1.73865
1.73741
1.73616
1.73487
1.73355
1.7322
1.7308
1.72935