/*--------------------------------*- C++ -*----------------------------------*\
| =========                 |                                                 |
| \\      /  F ield         | OpenFOAM: The Open Source CFD Toolbox           |
|  \\    /   O peration     | Version:  2112                                  |
|   \\  /    A nd           | Website:  www.openfoam.com                      |
|    \\/     M anipulation  |                                                 |
\*---------------------------------------------------------------------------*/
FoamFile
{
    version     2.0;
    format      ascii;
    arch        "LSB;label=32;scalar=64";
    class       volVectorField;
    location    "0";
    object      U;
}
// * * * * * * * * * * * * * * * * * * * * * * * * * * * * * * * * * * * * * //

dimensions      [0 1 -1 0 0 0 0];

internalField   nonuniform List<vector> 
2000
(
(1.12529 -0.9477 7.97515e-20)
(1.11369 -0.789056 0)
(1.10468 -0.666733 1.41087e-20)
(1.09757 -0.570395 1.2172e-26)
(1.09189 -0.493145 -4.10963e-20)
(1.08731 -0.430244 3.70846e-20)
(1.0836 -0.378355 -4.96257e-20)
(1.08058 -0.335066 -5.28499e-20)
(1.07811 -0.298564 0)
(1.07608 -0.267325 5.37693e-20)
(1.27379 -0.925097 8.50773e-20)
(1.23764 -0.77015 4.37488e-21)
(1.20974 -0.65071 0)
(1.18779 -0.55667 0)
(1.17022 -0.481286 0)
(1.15596 -0.419924 6.24347e-20)
(1.14424 -0.369317 -1.07309e-19)
(1.1345 -0.327112 -4.82982e-20)
(1.12634 -0.291575 1.09465e-19)
(1.11953 -0.261404 1.08241e-19)
(1.41699 -0.879619 9.04107e-20)
(1.35714 -0.732192 8.34685e-20)
(1.31102 -0.618572 0)
(1.27474 -0.529128 5.9366e-20)
(1.24571 -0.457434 3.67369e-20)
(1.22211 -0.399073 -3.7638e-20)
(1.20265 -0.350936 -4.3524e-20)
(1.18639 -0.310795 4.34448e-20)
(1.17259 -0.277046 1.67956e-19)
(1.16064 -0.248577 4.75023e-20)
(1.55135 -0.812349 9.47158e-20)
(1.46925 -0.676093 1.74668e-19)
(1.40601 -0.571095 0)
(1.3563 -0.48844 7.65255e-20)
(1.31652 -0.422177 5.79058e-20)
(1.2842 -0.368211 -1.66004e-20)
(1.25755 -0.323651 0)
(1.2353 -0.286398 3.83496e-20)
(1.21646 -0.254893 3.87482e-20)
(1.20026 -0.227921 0)
(1.67354 -0.724922 -4.94279e-20)
(1.57118 -0.603217 8.77552e-20)
(1.49239 -0.509439 -4.39537e-21)
(1.43047 -0.435613 1.10198e-20)
(1.38094 -0.376414 -2.56754e-20)
(1.34072 -0.328175 5.12501e-20)
(1.3076 -0.288296 1.54839e-20)
(1.28001 -0.254889 -1.81954e-20)
(1.25676 -0.22654 -4.89087e-20)
(1.23697 -0.202159 -3.16981e-21)
(1.78052 -0.619471 -5.1964e-20)
(1.66042 -0.515351 -2.47205e-21)
(1.568 -0.435126 -3.64509e-21)
(1.49539 -0.371966 -4.57011e-21)
(1.43735 -0.321308 -4.99542e-20)
(1.39024 -0.280011 6.40582e-20)
(1.3515 -0.245847 0)
(1.31929 -0.2172 5.38142e-22)
(1.29223 -0.192867 -3.49272e-20)
(1.26933 -0.171937 3.35697e-20)
(1.8696 -0.498593 0)
(1.73472 -0.414658 -4.83444e-20)
(1.63096 -0.349989 2.86935e-21)
(1.54947 -0.299073 -3.91323e-20)
(1.48434 -0.258232 4.07554e-20)
(1.43151 -0.22493 3.87861e-20)
(1.3881 -0.197373 -3.7834e-20)
(1.35205 -0.174261 3.63133e-20)
(1.32182 -0.154634 -1.09355e-20)
(1.29629 -0.137771 -4.69235e-20)
(1.93857 -0.365267 -2.70372e-22)
(1.79224 -0.303624 -4.91578e-20)
(1.67969 -0.256131 -2.07309e-21)
(1.59132 -0.218739 -2.67602e-20)
(1.52072 -0.188744 4.12745e-20)
(1.46346 -0.164285 3.37133e-21)
(1.41645 -0.144047 -3.82436e-20)
(1.37742 -0.127078 3.90541e-21)
(1.34472 -0.112678 3.20394e-20)
(1.31713 -0.100324 -3.46972e-20)
(1.98568 -0.222798 8.22716e-23)
(1.83153 -0.184993 -1.2471e-20)
(1.71298 -0.155867 0)
(1.61991 -0.132938 2.19655e-20)
(1.54557 -0.114546 0)
(1.48529 -0.0995528 9.0605e-21)
(1.43581 -0.0871516 -1.08599e-20)
(1.39474 -0.076761 0)
(1.36034 -0.0679529 9.22576e-21)
(1.33132 -0.0604081 8.92298e-21)
(2.00975 -0.0747161 0)
(1.8516 -0.0617033 -1.25411e-20)
(1.72999 -0.0516776 0)
(1.63452 -0.0437867 0)
(1.55826 -0.0374616 0)
(1.49644 -0.0323112 1.01262e-20)
(1.44568 -0.0280592 -9.78106e-21)
(1.40357 -0.0245067 2.07461e-22)
(1.3683 -0.021508 9.47318e-21)
(1.33853 -0.0189531 -9.2801e-21)
(0.101122 -0.0741427 0)
(0.25757 -0.0617803 5.54289e-22)
(0.377895 -0.0522274 0)
(0.472336 -0.0446901 0)
(0.547744 -0.0386362 0)
(0.60885 -0.0336998 -5.51356e-22)
(0.659005 -0.0296238 5.50487e-22)
(0.700643 -0.0262243 -4.7371e-21)
(0.735566 -0.023368 -5.52326e-21)
(0.765143 -0.0209587 5.72362e-21)
(0.124369 -0.220625 -6.61193e-22)
(0.277025 -0.183836 1.38917e-21)
(0.394422 -0.155409 0)
(0.486555 -0.132977 -2.81152e-21)
(0.560111 -0.114957 0)
(0.619701 -0.10026 -1.00676e-21)
(0.668593 -0.08812 9.50748e-22)
(0.709154 -0.0779878 0)
(0.743138 -0.0694644 -8.64354e-22)
(0.771863 -0.0622559 -1.63882e-21)
(0.170307 -0.361762 1.30725e-21)
(0.315467 -0.301426 9.94056e-21)
(0.427081 -0.254804 1.00062e-20)
(0.514658 -0.218011 3.00511e-20)
(0.584559 -0.188449 -8.66563e-21)
(0.641165 -0.164328 -1.61759e-20)
(0.687575 -0.144389 2.56713e-20)
(0.726035 -0.127729 -8.01827e-28)
(0.758206 -0.113691 1.17611e-20)
(0.785348 -0.101788 8.59831e-20)
(0.237845 -0.494135 0)
(0.371979 -0.411692 1.32043e-20)
(0.475092 -0.347992 -9.83359e-21)
(0.555982 -0.297719 -9.48942e-22)
(0.620525 -0.257314 -1.07082e-20)
(0.672764 -0.224327 -1.14178e-20)
(0.715554 -0.197031 9.72068e-21)
(0.750953 -0.174188 -1.07802e-20)
(0.780484 -0.1549 3.99515e-20)
(0.805296 -0.138512 4.87242e-20)
(0.325369 -0.614521 2.12725e-20)
(0.445206 -0.511948 6.51859e-21)
(0.537304 -0.432703 9.60406e-21)
(0.609539 -0.370161 1.20277e-20)
(0.667163 -0.319881 4.28603e-20)
(0.713784 -0.278803 3.52015e-21)
(0.751935 -0.244768 0)
(0.783435 -0.216222 1.40503e-21)
(0.809609 -0.192039 1.17317e-20)
(0.831447 -0.171402 6.52253e-20)
(0.430781 -0.719973 2.24978e-20)
(0.533381 -0.599741 -3.57718e-20)
(0.612212 -0.506871 9.31787e-21)
(0.674035 -0.433577 -2.33428e-20)
(0.723358 -0.374644 1.68849e-20)
(0.763267 -0.326468 1.40742e-20)
(0.795924 -0.286496 0)
(0.822858 -0.252876 -1.99029e-20)
(0.845157 -0.224256 -4.88597e-21)
(0.863582 -0.199643 -1.39571e-20)
(0.551544 -0.807893 -5.29645e-20)
(0.634368 -0.672911 -9.71864e-20)
(0.697985 -0.568676 0)
(0.747885 -0.486429 -4.36672e-20)
(0.787721 -0.420301 -1.56143e-20)
(0.819998 -0.36623 2.90836e-20)
(0.846474 -0.321324 0)
(0.868386 -0.283461 -6.71293e-20)
(0.886585 -0.251045 -7.33386e-20)
(0.90159 -0.222852 0)
(0.684732 -0.87609 -5.98892e-20)
(0.745707 -0.729643 -6.64842e-20)
(0.79252 -0.616592 -1.71518e-20)
(0.829249 -0.527423 -2.63737e-20)
(0.858612 -0.45576 -2.04112e-20)
(0.882483 -0.397192 0)
(0.902203 -0.348571 4.4035e-20)
(0.918757 -0.307567 0)
(0.932882 -0.272373 -1.48375e-19)
(0.94509 -0.241481 -7.06525e-20)
(0.827101 -0.922836 -6.50404e-20)
(0.864672 -0.768503 0)
(0.893486 -0.649413 0)
(0.916093 -0.555529 0)
(0.9342 -0.480136 0)
(0.948994 -0.418604 -5.06665e-20)
(0.961355 -0.367648 1.03933e-19)
(0.972002 -0.32487 6.09544e-20)
(0.981653 -0.288448 -1.08151e-19)
(0.991274 -0.256873 -1.12648e-19)
(0.975162 -0.94692 -7.33659e-20)
(0.988342 -0.788487 0)
(0.998395 -0.666283 -1.5226e-20)
(1.00626 -0.569996 1.12381e-26)
(1.01258 -0.492742 4.43534e-20)
(1.01778 -0.429794 -2.88495e-20)
(1.02217 -0.377839 5.35728e-20)
(1.02594 -0.334551 5.70591e-20)
(1.02917 -0.298378 0)
(1.03167 -0.268541 -4.73913e-20)
(0.789654 -0.0185604 5.33129e-21)
(0.811576 -0.0158441 -5.49212e-21)
(0.830413 -0.0135626 -5.62023e-21)
(0.84664 -0.0116368 0)
(0.860651 -0.0100074 0)
(0.872778 -0.00862654 5.91014e-21)
(0.883299 -0.00745425 1.19642e-20)
(0.892448 -0.00645541 1.20891e-20)
(0.900419 -0.00559854 1.21978e-20)
(0.907369 -0.00485566 6.14444e-21)
(0.913424 -0.00420303 -3.094e-21)
(0.918682 -0.00362083 -3.11184e-21)
(0.923218 -0.00309352 -3.42019e-24)
(0.927092 -0.00260869 3.14074e-21)
(0.930346 -0.00215699 3.15179e-21)
(0.933016 -0.00173078 -4.63854e-24)
(0.935125 -0.00132414 -1.58412e-21)
(0.936691 -0.000931704 -1.58677e-21)
(0.937725 -0.000548952 0)
(0.938232 -0.000171079 0)
(0.795446 -0.0552689 3.20277e-23)
(0.81632 -0.04724 0)
(0.834346 -0.0404555 -2.23869e-20)
(0.849931 -0.0347247 1.76398e-23)
(0.863434 -0.0298747 2.32464e-20)
(0.875163 -0.0257662 -2.16598e-23)
(0.885379 -0.0222804 2.85775e-23)
(0.894301 -0.0193108 -1.05052e-23)
(0.902106 -0.0167612 0)
(0.908936 -0.0145469 6.37435e-24)
(0.914903 -0.0125969 -1.64569e-24)
(0.920091 -0.0108533 0)
(0.92457 -0.00927121 6.25808e-21)
(0.928391 -0.00781519 -1.89656e-24)
(0.931596 -0.00645855 -6.30653e-21)
(0.93422 -0.0051795 -1.72533e-24)
(0.936287 -0.00396074 0)
(0.937818 -0.00278655 0)
(0.938825 -0.00164331 0)
(0.939317 -0.000516641 -2.27215e-23)
(0.807292 -0.0908208 1.70951e-23)
(0.826133 -0.0777549 -8.66405e-20)
(0.842512 -0.0666195 2.04405e-23)
(0.856767 -0.0572183 4.52562e-20)
(0.869211 -0.0492681 8.70671e-24)
(0.880113 -0.0425435 -2.35443e-20)
(0.8897 -0.0368449 -2.37234e-20)
(0.898155 -0.0319885 0)
(0.905617 -0.0278083 -1.52867e-23)
(0.912191 -0.0241624 0)
(0.917958 -0.020936 9.18947e-24)
(0.922983 -0.0180384 1.87065e-24)
(0.927319 -0.0154012 6.48962e-24)
(0.931009 -0.0129712 0)
(0.934095 -0.0107079 1.46768e-23)
(0.93661 -0.00857781 1.83728e-23)
(0.938581 -0.00655334 0)
(0.940033 -0.00460909 2.52149e-23)
(0.940981 -0.0027221 2.84442e-23)
(0.941438 -0.00086833 9.42086e-24)
(0.824978 -0.124458 0)
(0.840769 -0.10678 -1.51318e-22)
(0.854664 -0.0915281 4.37386e-20)
(0.866927 -0.0786858 -1.90755e-22)
(0.877807 -0.0678555 -4.54985e-20)
(0.887517 -0.058721 -6.82793e-23)
(0.896218 -0.0509862 4.20748e-23)
(0.904019 -0.0443765 0)
(0.91099 -0.0386537 2.41846e-20)
(0.917178 -0.0336252 2.43688e-20)
(0.922624 -0.0291435 -1.69507e-23)
(0.927366 -0.0250976 -2.48957e-20)
(0.931445 -0.0214049 -2.50108e-20)
(0.934903 -0.0180012 -1.25813e-20)
(0.937777 -0.0148361 2.55623e-23)
(0.940105 -0.0118664 1.2707e-20)
(0.941918 -0.00905441 6.37356e-21)
(0.943242 -0.00636475 6.40569e-21)
(0.944098 -0.00376465 3.15792e-21)
(0.9445 -0.00121996 3.23078e-21)
(0.848442 -0.155289 8.09234e-20)
(0.860171 -0.133663 0)
(0.870709 -0.114654 3.08494e-22)
(0.880349 -0.0987391 0)
(0.889241 -0.0853827 4.56024e-20)
(0.897487 -0.0741448 4.57752e-20)
(0.905112 -0.0646015 4.71269e-20)
(0.912093 -0.0563817 -1.39132e-22)
(0.918399 -0.0491911 2.29514e-22)
(0.924015 -0.0428107 -2.79042e-22)
(0.928948 -0.0370834 -4.90769e-20)
(0.933225 -0.0318931 2.24591e-23)
(0.936884 -0.0271526 0)
(0.939967 -0.0227907 2.52376e-20)
(0.942516 -0.0187478 2.53254e-20)
(0.944569 -0.0149699 1.27129e-20)
(0.946158 -0.0114079 -1.90116e-23)
(0.94731 -0.00801458 -6.45847e-21)
(0.948045 -0.00474626 3.07218e-21)
(0.948376 -0.00155805 -3.21253e-21)
(0.877572 -0.18229 7.97543e-20)
(0.884233 -0.157667 8.14038e-20)
(0.890578 -0.135493 3.77252e-22)
(0.89713 -0.117105 0)
(0.903804 -0.101725 -4.42282e-20)
(0.91043 -0.0887323 -9.05375e-20)
(0.916785 -0.0775742 5.7274e-22)
(0.922684 -0.0678275 4.69891e-20)
(0.928014 -0.0591955 0)
(0.932734 -0.051473 0)
(0.936854 -0.0445153 4.92912e-20)
(0.940407 -0.0382098 4.95278e-20)
(0.943437 -0.0324647 0)
(0.945989 -0.0271984 5.38845e-24)
(0.9481 -0.0223378 0)
(0.949803 -0.0178142 -2.67443e-23)
(0.951121 -0.0135643 0)
(0.952074 -0.00952723 -5.50198e-23)
(0.952672 -0.00564738 -6.82153e-23)
(0.952925 -0.00186875 0)
(0.912064 -0.20429 -6.17853e-22)
(0.912789 -0.177994 5.19981e-22)
(0.914476 -0.153769 -4.46536e-22)
(0.917908 -0.13377 3.78517e-22)
(0.922316 -0.116858 -3.20876e-22)
(0.927054 -0.102309 0)
(0.931666 -0.0895761 2.27707e-22)
(0.935911 -0.0782978 1.89161e-22)
(0.939704 -0.0682374 -4.78243e-20)
(0.943048 -0.0592229 -4.7861e-20)
(0.945978 -0.051118 -9.62805e-23)
(0.948534 -0.0438013 -7.12899e-23)
(0.950751 -0.0371641 4.86285e-23)
(0.952655 -0.0311047 -2.53154e-20)
(0.954261 -0.0255306 -2.54019e-20)
(0.955579 -0.0203556 8.69697e-24)
(0.956614 -0.0155006 0)
(0.957368 -0.0108918 -4.08976e-23)
(0.957837 -0.00646232 6.54291e-21)
(0.95802 -0.00214595 6.41843e-21)
(0.951003 -0.220409 -6.69288e-22)
(0.945826 -0.194187 0)
(0.943551 -0.169777 7.97168e-20)
(0.94412 -0.148816 8.18082e-20)
(0.945731 -0.130431 -3.64945e-22)
(0.947589 -0.11422 0)
(0.949387 -0.0998599 2.611e-22)
(0.951068 -0.0871093 2.17775e-22)
(0.952657 -0.0757707 -1.7924e-22)
(0.954182 -0.0656649 1.44886e-22)
(0.955656 -0.0566277 -1.14156e-22)
(0.957073 -0.0485059 -4.97171e-20)
(0.958412 -0.0411612 -9.99763e-20)
(0.959649 -0.0344678 -5.0344e-20)
(0.960757 -0.0283133 1.78364e-23)
(0.96171 -0.0225964 1.60503e-24)
(0.962484 -0.0172257 0)
(0.963061 -0.0121179 -1.30343e-20)
(0.963422 -0.00719812 -1.29717e-20)
(0.963555 -0.00239332 -7.0186e-23)
(0.991779 -0.2319 3.75143e-22)
(0.984003 -0.207507 0)
(0.979442 -0.183946 -7.81642e-20)
(0.97589 -0.161459 -7.86288e-20)
(0.972635 -0.141206 8.40177e-20)
(0.969879 -0.123322 8.47188e-20)
(0.967767 -0.107588 0)
(0.966326 -0.0937385 0)
(0.965498 -0.0815153 0)
(0.965182 -0.0706796 -1.02514e-22)
(0.965262 -0.0610191 0)
(0.965626 -0.0523462 0)
(0.966172 -0.0444982 -5.02006e-20)
(0.966814 -0.0373325 -5.03752e-20)
(0.967479 -0.030725 0)
(0.968106 -0.0245665 0)
(0.968647 -0.0187598 0)
(0.969067 -0.0132173 1.10351e-23)
(0.969336 -0.00786152 6.56271e-21)
(0.969437 -0.00261706 6.56462e-21)
(1.02413 -0.241344 3.90563e-22)
(1.01405 -0.218376 7.03438e-20)
(1.00501 -0.195088 7.08643e-20)
(0.996243 -0.171207 2.7225e-22)
(0.989265 -0.149436 8.07867e-20)
(0.984029 -0.13031 -2.47418e-21)
(0.980225 -0.113618 -1.71372e-19)
(0.977563 -0.0990198 2.22401e-21)
(0.975794 -0.0861862 9.00647e-20)
(0.974709 -0.0748299 -1.09375e-22)
(0.974135 -0.0647063 0)
(0.97393 -0.0556075 0)
(0.973978 -0.0473565 5.01201e-20)
(0.974186 -0.039802 -6.65219e-22)
(0.974478 -0.0328132 -2.52208e-20)
(0.974796 -0.0262771 2.57829e-20)
(0.975093 -0.0200934 0)
(0.975335 -0.0141735 -6.61331e-24)
(0.975499 -0.00843813 0)
(0.975569 -0.00281273 0)
(1.0517 -0.235582 0)
(1.03261 -0.213708 0)
(1.01605 -0.191984 0)
(1.00331 -0.170002 0)
(0.994549 -0.149532 0)
(0.988797 -0.131181 0)
(0.985119 -0.114929 0)
(0.982838 -0.100559 0)
(0.981494 -0.0878173 0)
(0.980774 -0.0764628 0)
(0.980463 -0.0662793 0)
(0.980412 -0.0570785 0)
(0.980517 -0.0486958 0)
(0.980705 -0.0409891 0)
(0.980926 -0.0338334 0)
(0.981147 -0.0271202 0)
(0.981344 -0.0207522 0)
(0.981504 -0.0146434 0)
(0.981615 -0.00871503 0)
(0.981671 -0.00289407 0)
(1.07469 -0.213604 0)
(1.05315 -0.195053 0)
(1.03598 -0.176893 0)
(1.02255 -0.158917 0)
(1.01245 -0.141745 0)
(1.00506 -0.125816 0)
(0.999731 -0.11128 0)
(0.995926 -0.0981152 0)
(0.99323 -0.086216 0)
(0.991339 -0.0754469 0)
(0.990025 -0.065666 0)
(0.989126 -0.0567368 0)
(0.98852 -0.0485324 0)
(0.988119 -0.0409371 0)
(0.987861 -0.0338461 0)
(0.987699 -0.0271645 0)
(0.987602 -0.0208059 0)
(0.987546 -0.0146914 0)
(0.987517 -0.00874767 0)
(0.987504 -0.00290488 0)
(1.09066 -0.189771 0)
(1.06932 -0.176011 0)
(1.05218 -0.161623 0)
(1.03846 -0.147032 0)
(1.02765 -0.132719 0)
(1.01926 -0.11906 0)
(1.01282 -0.106263 0)
(1.0079 -0.0944078 0)
(1.00416 -0.0834864 0)
(1.00132 -0.0734443 0)
(0.999173 -0.0642021 0)
(0.997546 -0.0556711 0)
(0.996316 -0.0477604 0)
(0.995391 -0.0403814 0)
(0.994699 -0.0334497 0)
(0.994187 -0.0268861 0)
(0.993817 -0.0206157 0)
(0.993562 -0.014569 0)
(0.993401 -0.00867933 0)
(0.993324 -0.00288283 0)
(1.10085 -0.167297 0)
(1.0813 -0.157599 0)
(1.06496 -0.146558 0)
(1.05146 -0.134871 0)
(1.04043 -0.123044 0)
(1.03152 -0.111443 0)
(1.02438 -0.100308 0)
(1.0187 -0.0897683 0)
(1.01419 -0.0798795 0)
(1.01062 -0.0706429 0)
(1.0078 -0.0620281 0)
(1.00557 -0.053986 0)
(1.00381 -0.0464575 0)
(1.00243 -0.039379 0)
(1.00136 -0.0326859 0)
(1.00053 -0.0263145 0)
(0.999919 -0.0202025 0)
(0.999482 -0.0142897 0)
(0.999203 -0.0085179 0)
(0.999066 -0.00283001 0)
(1.10751 -0.147375 0)
(1.09006 -0.140531 0)
(1.07491 -0.132141 0)
(1.06197 -0.122853 0)
(1.05108 -0.113144 0)
(1.042 -0.103364 0)
(1.03449 -0.0937572 0)
(1.02833 -0.0844802 0)
(1.02329 -0.0756217 0)
(1.01918 -0.0672209 0)
(1.01583 -0.0592825 0)
(1.01312 -0.0517882 0)
(1.01092 -0.0447052 0)
(1.00916 -0.0379916 0)
(1.00776 -0.0316009 0)
(1.00667 -0.0254838 0)
(1.00584 -0.0195902 0)
(1.00525 -0.0138697 0)
(1.00486 -0.00827266 0)
(1.00467 -0.00274937 0)
(1.11207 -0.129923 0)
(1.09654 -0.125011 0)
(1.08264 -0.118622 0)
(1.07045 -0.111257 0)
(1.05991 -0.103316 0)
(1.0509 -0.0951128 0)
(1.04327 -0.0868782 0)
(1.03684 -0.0787743 0)
(1.03145 -0.0709069 0)
(1.02696 -0.0633371 0)
(1.02323 -0.0560933 0)
(1.02014 -0.0491796 0)
(1.01761 -0.0425838 0)
(1.01553 -0.0362818 0)
(1.01386 -0.0302426 0)
(1.01254 -0.0244299 0)
(1.01153 -0.0188048 0)
(1.0108 -0.0133265 0)
(1.01032 -0.0079537 0)
(1.01009 -0.00264419 0)
(1.11527 -0.114534 0)
(1.10136 -0.110969 0)
(1.08867 -0.106081 0)
(1.07728 -0.100235 0)
(1.06722 -0.0937514 0)
(1.05844 -0.0868934 0)
(1.05083 -0.0798687 0)
(1.0443 -0.0728326 0)
(1.03873 -0.0658949 0)
(1.03399 -0.0591279 0)
(1.02999 -0.0525742 0)
(1.02663 -0.0462536 0)
(1.02382 -0.0401687 0)
(1.0215 -0.0343096 0)
(1.01962 -0.0286579 0)
(1.01811 -0.0231885 0)
(1.01695 -0.0178726 0)
(1.0161 -0.0126781 0)
(1.01554 -0.00757145 0)
(1.01527 -0.0025179 0)
(1.11751 -0.100839 0)
(1.10499 -0.0982476 0)
(1.09337 -0.0944969 0)
(1.08278 -0.0898518 0)
(1.07326 -0.0845607 0)
(1.06479 -0.0788405 0)
(1.05733 -0.0728706 0)
(1.05081 -0.0667924 0)
(1.04516 -0.0607121 0)
(1.04028 -0.0547053 0)
(1.03611 -0.0488222 0)
(1.03255 -0.0430919 0)
(1.02955 -0.0375277 0)
(1.02704 -0.0321302 0)
(1.02499 -0.0268908 0)
(1.02333 -0.0217939 0)
(1.02204 -0.0168189 0)
(1.0211 -0.0119418 0)
(1.02048 -0.00713612 0)
(1.02018 -0.00237385 0)
(1.11904 -0.0885525 0)
(1.10771 -0.086685 0)
(1.09706 -0.0838067 0)
(1.08722 -0.0801136 0)
(1.07823 -0.0757984 0)
(1.07013 -0.0710369 0)
(1.06288 -0.0659805 0)
(1.05646 -0.060754 0)
(1.05081 -0.0554555 0)
(1.04588 -0.0501591 0)
(1.0416 -0.0449171 0)
(1.03792 -0.0397641 0)
(1.03478 -0.03472 0)
(1.03214 -0.0297928 0)
(1.02995 -0.0249813 0)
(1.02818 -0.0202773 0)
(1.0268 -0.0156674 0)
(1.02578 -0.0111341 0)
(1.02511 -0.00665738 0)
(1.02478 -0.00221525 0)
(1.12005 -0.0774538 0)
(1.10973 -0.0761323 0)
(1.09995 -0.0739303 0)
(1.09079 -0.0709967 0)
(1.08233 -0.0674819 0)
(1.0746 -0.0635275 0)
(1.06761 -0.05926 0)
(1.06134 -0.0547871 0)
(1.05575 -0.0501967 0)
(1.05082 -0.0455581 0)
(1.0465 -0.0409228 0)
(1.04275 -0.0363274 0)
(1.03952 -0.0317953 0)
(1.03678 -0.0273395 0)
(1.0345 -0.0229641 0)
(1.03264 -0.0186666 0)
(1.03119 -0.0144392 0)
(1.03011 -0.0102699 0)
(1.0294 -0.00614403 0)
(1.02905 -0.00204499 0)
(1.12067 -0.0673677 0)
(1.11123 -0.0664591 0)
(1.1022 -0.0647848 0)
(1.09367 -0.0624604 0)
(1.0857 -0.0596043 0)
(1.07835 -0.0563308 0)
(1.07162 -0.0527445 0)
(1.06552 -0.0489371 0)
(1.06004 -0.0449859 0)
(1.05515 -0.0409534 0)
(1.05083 -0.0368885 0)
(1.04705 -0.0328271 0)
(1.04377 -0.0287942 0)
(1.04097 -0.0248056 0)
(1.03862 -0.020869 0)
(1.03671 -0.0169859 0)
(1.03519 -0.0131528 0)
(1.03408 -0.00936216 0)
(1.03334 -0.00560385 0)
(1.03297 -0.00186567 0)
(1.121 -0.0581495 0)
(1.11232 -0.0575507 0)
(1.10394 -0.0562888 0)
(1.09597 -0.054455 0)
(1.08846 -0.0521434 0)
(1.08146 -0.0494462 0)
(1.075 -0.0464495 0)
(1.0691 -0.0432306 0)
(1.06374 -0.039856 0)
(1.05892 -0.0363811 0)
(1.05463 -0.0328504 0)
(1.05084 -0.029298 0)
(1.04754 -0.0257488 0)
(1.04471 -0.0222196 0)
(1.04232 -0.0187204 0)
(1.04036 -0.0152552 0)
(1.03881 -0.0118238 0)
(1.03766 -0.00842211 0)
(1.0369 -0.00504353 0)
(1.03652 -0.00167952 0)
(1.12112 -0.0496752 0)
(1.11309 -0.0493045 0)
(1.10529 -0.0483643 0)
(1.09781 -0.0469269 0)
(1.09071 -0.0450676 0)
(1.08404 -0.0428606 0)
(1.07784 -0.0403764 0)
(1.07212 -0.0376794 0)
(1.06689 -0.034826 0)
(1.06216 -0.0318643 0)
(1.05791 -0.0288338 0)
(1.05415 -0.0257656 0)
(1.05085 -0.0226833 0)
(1.048 -0.0196037 0)
(1.04559 -0.0165375 0)
(1.0436 -0.0134907 0)
(1.04203 -0.010465 0)
(1.04086 -0.00745894 0)
(1.04008 -0.00446861 0)
(1.03969 -0.00148838 0)
(1.12111 -0.0418351 0)
(1.11363 -0.0416272 0)
(1.10632 -0.0409364 0)
(1.09927 -0.0398204 0)
(1.09253 -0.0383389 0)
(1.08616 -0.0365517 0)
(1.08019 -0.0345158 0)
(1.07465 -0.0322842 0)
(1.06955 -0.0299041 0)
(1.06491 -0.0274162 0)
(1.06073 -0.0248547 0)
(1.05699 -0.0222471 0)
(1.0537 -0.019615 0)
(1.05085 -0.0169741 0)
(1.04843 -0.0143352 0)
(1.04643 -0.011705 0)
(1.04484 -0.00908654 0)
(1.04366 -0.00648003 0)
(1.04287 -0.00388357 0)
(1.04248 -0.00129376 0)
(1.12101 -0.0345296 0)
(1.11399 -0.0344322 0)
(1.1071 -0.0339335 0)
(1.10041 -0.0330789 0)
(1.09398 -0.0319156 0)
(1.08787 -0.030491 0)
(1.0821 -0.0288507 0)
(1.07673 -0.0270374 0)
(1.07176 -0.0250897 0)
(1.06721 -0.0230415 0)
(1.06308 -0.0209215 0)
(1.05939 -0.0187532 0)
(1.05612 -0.0165555 0)
(1.05328 -0.0143424 0)
(1.05086 -0.0121242 0)
(1.04885 -0.00990757 0)
(1.04725 -0.00769607 0)
(1.04606 -0.00549102 0)
(1.04527 -0.00329189 0)
(1.04487 -0.00109682 0)
(1.12086 -0.0276664 0)
(1.11422 -0.027638 0)
(1.10768 -0.0272861 0)
(1.10129 -0.0266457 0)
(1.09512 -0.0257533 0)
(1.08922 -0.0246456 0)
(1.08364 -0.0233582 0)
(1.07841 -0.0219247 0)
(1.07355 -0.0203758 0)
(1.06908 -0.0187386 0)
(1.06501 -0.0170364 0)
(1.06136 -0.0152887 0)
(1.05812 -0.0135111 0)
(1.05529 -0.0117158 0)
(1.05287 -0.00991173 0)
(1.05086 -0.00810492 0)
(1.04926 -0.00629911 0)
(1.04806 -0.0044961 0)
(1.04726 -0.00269614 0)
(1.04687 -0.000898437 0)
(1.12071 -0.0211583 0)
(1.11437 -0.021167 0)
(1.10809 -0.020927 0)
(1.10194 -0.0204643 0)
(1.09598 -0.0198061 0)
(1.09026 -0.0189796 0)
(1.08483 -0.0180116 0)
(1.07971 -0.0169273 0)
(1.07495 -0.01575 0)
(1.07055 -0.0145005 0)
(1.06653 -0.0131968 0)
(1.06291 -0.011854 0)
(1.0597 -0.0104845 0)
(1.05688 -0.00909804 0)
(1.05447 -0.0077019 0)
(1.05246 -0.00630124 0)
(1.05086 -0.00489936 0)
(1.04966 -0.00349811 0)
(1.04886 -0.00209812 0)
(1.04846 -0.000699233 0)
(1.12057 -0.0149227 0)
(1.11446 -0.0149443 0)
(1.10838 -0.0147902 0)
(1.10241 -0.0144782 0)
(1.0966 -0.0140268 0)
(1.09101 -0.013455 0)
(1.08569 -0.0127811 0)
(1.08067 -0.0120228 0)
(1.07597 -0.0111964 0)
(1.07163 -0.0103166 0)
(1.06766 -0.0093962 0)
(1.06407 -0.00844596 0)
(1.06087 -0.00747484 0)
(1.05807 -0.00648993 0)
(1.05567 -0.00549661 0)
(1.05366 -0.00449877 0)
(1.05206 -0.003499 0)
(1.05086 -0.00249885 0)
(1.05006 -0.00149902 0)
(1.04966 -0.000499611 0)
(1.12047 -0.00887991 0)
(1.1145 -0.00889734 0)
(1.10856 -0.00881119 0)
(1.1027 -0.00863121 0)
(1.097 -0.00836788 0)
(1.09151 -0.00803211 0)
(1.08626 -0.00763477 0)
(1.0813 -0.00718624 0)
(1.07665 -0.00669621 0)
(1.07235 -0.00617339 0)
(1.0684 -0.00562542 0)
(1.06484 -0.00505883 0)
(1.06165 -0.004479 0)
(1.05886 -0.00389024 0)
(1.05646 -0.00329584 0)
(1.05446 -0.00269823 0)
(1.05286 -0.00209904 0)
(1.05166 -0.00149928 0)
(1.05086 -0.000899488 0)
(1.05046 -0.000299808 0)
(1.12042 -0.0029485 0)
(1.11452 -0.00295438 0)
(1.10864 -0.00292654 0)
(1.10285 -0.00286775 0)
(1.0972 -0.00278125 0)
(1.09175 -0.00267057 0)
(1.08654 -0.0025393 0)
(1.08161 -0.00239086 0)
(1.07699 -0.00222848 0)
(1.0727 -0.00205504 0)
(1.06877 -0.00187309 0)
(1.06522 -0.00168481 0)
(1.06204 -0.00149201 0)
(1.05925 -0.00129612 0)
(1.05686 -0.00109825 0)
(1.05486 -0.000899228 0)
(1.05326 -0.00069961 0)
(1.05206 -0.00049975 0)
(1.05126 -0.000299837 0)
(1.05086 -9.99413e-05 0)
(1.31243 -0.0163317 -1.3501e-21)
(1.30648 -0.0526954 1.10544e-21)
(1.29473 -0.0878611 1.57411e-21)
(1.27742 -0.121108 4.31647e-21)
(1.25482 -0.151783 8.47336e-21)
(1.22728 -0.179276 -6.95113e-20)
(1.19519 -0.202924 0)
(1.15912 -0.221576 0)
(1.12028 -0.231351 1.89359e-21)
(1.08057 -0.236475 1.82623e-21)
(1.29106 -0.0137139 2.19374e-22)
(1.28621 -0.0449581 0)
(1.27669 -0.0753338 1.50043e-20)
(1.26283 -0.104376 -2.13518e-21)
(1.24505 -0.131724 0)
(1.22377 -0.157074 -3.35175e-20)
(1.1992 -0.179898 4.09389e-20)
(1.17093 -0.198532 -3.95001e-21)
(1.13858 -0.208853 0)
(1.10362 -0.215789 -5.73628e-20)
(1.27262 -0.0115755 2.29393e-22)
(1.26868 -0.0386065 2.4494e-21)
(1.26093 -0.0650566 -1.5191e-21)
(1.24961 -0.0906086 -1.32765e-20)
(1.23495 -0.114951 4.17211e-21)
(1.21705 -0.137609 4.10941e-21)
(1.19569 -0.157552 4.29347e-20)
(1.17059 -0.172775 -4.57552e-20)
(1.14325 -0.18208 4.9521e-20)
(1.11563 -0.191815 -6.20873e-20)
(1.25656 -0.0098268 0)
(1.25332 -0.0333593 1.86142e-22)
(1.24688 -0.0564876 -1.22721e-20)
(1.23732 -0.0789303 -8.47501e-22)
(1.22466 -0.100275 0)
(1.20877 -0.119796 0)
(1.18954 -0.136324 4.01809e-21)
(1.16752 -0.148802 -4.39165e-20)
(1.14472 -0.158836 5.5586e-20)
(1.12222 -0.170326 1.89798e-21)
(1.24248 -0.00837888 0)
(1.23973 -0.0289463 -3.46965e-22)
(1.23418 -0.0491685 -4.02606e-21)
(1.2258 -0.0687303 1.32465e-20)
(1.21449 -0.087117 8.21159e-21)
(1.2002 -0.103558 2.00516e-20)
(1.18317 -0.11727 -3.99807e-21)
(1.16441 -0.128388 -3.93359e-21)
(1.14532 -0.139309 -4.83991e-20)
(1.12611 -0.151056 -5.32875e-20)
(1.23006 -0.00715547 -1.87679e-22)
(1.22765 -0.0251498 -2.07887e-21)
(1.22272 -0.0427777 -6.04085e-22)
(1.21519 -0.0596834 -2.05607e-21)
(1.205 -0.0753422 0)
(1.19226 -0.0891586 3.18886e-20)
(1.17748 -0.100888 0)
(1.16159 -0.111335 0)
(1.14532 -0.122436 -4.99881e-20)
(1.12848 -0.133545 -3.99532e-21)
(1.21909 -0.00610067 6.62701e-22)
(1.21692 -0.0218201 3.09138e-21)
(1.21245 -0.037121 3.64845e-21)
(1.20562 -0.0516384 2.03903e-21)
(1.19647 -0.06493 -3.81457e-21)
(1.18524 -0.0766645 5.31771e-21)
(1.17251 -0.0870056 3.9644e-21)
(1.15894 -0.0968917 3.91765e-21)
(1.14481 -0.107519 0)
(1.12986 -0.117612 1.01023e-19)
(1.2094 -0.00517821 -1.37197e-21)
(1.20743 -0.018864 -1.02258e-21)
(1.20335 -0.0320876 0)
(1.19716 -0.0445116 0)
(1.18898 -0.0558232 -1.22917e-20)
(1.17914 -0.0659299 -1.49748e-20)
(1.16813 -0.0751985 3.95054e-21)
(1.15638 -0.0844196 3.90999e-21)
(1.14391 -0.0941898 0)
(1.13056 -0.103169 4.25594e-21)
(1.20088 -0.00436634 -3.24479e-22)
(1.19908 -0.0162267 8.82199e-22)
(1.19535 -0.0276092 -2.02359e-21)
(1.18975 -0.0382294 -2.05078e-21)
(1.18247 -0.047905 -6.42743e-21)
(1.17383 -0.0567058 0)
(1.16423 -0.065043 1.10239e-20)
(1.15389 -0.0734786 -3.90244e-21)
(1.14277 -0.0822284 0)
(1.13078 -0.0901199 -4.68682e-20)
(1.19342 -0.0036521 8.52719e-22)
(1.19178 -0.0138734 1.91666e-21)
(1.18838 -0.0236331 0)
(1.18332 -0.0327087 -8.18913e-21)
(1.17683 -0.0410227 -5.0986e-21)
(1.1692 -0.0487287 -3.95557e-21)
(1.16072 -0.0561942 1.53665e-20)
(1.15149 -0.0637731 3.89511e-21)
(1.14148 -0.0714715 -1.93236e-21)
(1.13067 -0.0783459 -1.91392e-21)
(1.18693 -0.00302672 6.49188e-23)
(1.18544 -0.0117781 2.0077e-21)
(1.18235 -0.0201095 4.11654e-25)
(1.17779 -0.0278577 -1.99384e-21)
(1.17197 -0.0350158 9.88731e-21)
(1.16516 -0.0417628 0)
(1.15756 -0.0483886 -1.64543e-20)
(1.14923 -0.0550912 -3.88813e-21)
(1.14013 -0.0617754 0)
(1.13032 -0.0677151 0)
(1.18133 -0.00248271 -9.34173e-22)
(1.17998 -0.00991626 -9.9939e-22)
(1.17717 -0.0169872 -3.09399e-21)
(1.17304 -0.0235823 5.05584e-21)
(1.1678 -0.0297343 7.90538e-21)
(1.16164 -0.0356122 3.9311e-21)
(1.15474 -0.0414262 -1.67749e-20)
(1.14712 -0.0472689 8.97701e-21)
(1.13879 -0.0530057 0)
(1.12983 -0.0580922 0)
(1.17655 -0.00201257 9.9653e-22)
(1.17533 -0.00826317 9.95458e-22)
(1.17277 -0.0142148 -4.09249e-21)
(1.16901 -0.0197926 3.89398e-21)
(1.16423 -0.0250467 0)
(1.1586 -0.030119 0)
(1.15224 -0.0351513 3.89998e-21)
(1.14521 -0.0401709 2.84034e-20)
(1.13751 -0.0450354 1.07689e-20)
(1.12925 -0.0493441 -1.59548e-20)
(1.17251 -0.00160816 -4.48499e-23)
(1.1714 -0.00679302 2.55295e-22)
(1.16906 -0.0117414 -1.00314e-21)
(1.16561 -0.0164066 2.12277e-23)
(1.16121 -0.0208413 -6.93117e-21)
(1.156 -0.0251558 -3.64205e-21)
(1.15008 -0.029439 8.15999e-21)
(1.14351 -0.0336803 1.55158e-20)
(1.13633 -0.0377455 1.11383e-20)
(1.12866 -0.0413439 -4.29797e-21)
(1.16915 -0.00126106 9.4439e-22)
(1.16815 -0.00547997 1.46732e-21)
(1.16599 -0.00951932 -1.97451e-21)
(1.16279 -0.0133518 -7.58453e-22)
(1.15869 -0.0170249 -3.09491e-21)
(1.15381 -0.0206192 -7.66169e-21)
(1.14824 -0.0241855 4.39982e-21)
(1.14205 -0.0276937 3.86604e-21)
(1.13529 -0.0310253 2.62871e-21)
(1.12807 -0.0339717 5.51282e-21)
(1.16643 -0.0009625 9.87969e-22)
(1.16551 -0.00429862 1.20918e-21)
(1.16351 -0.00750395 -1.97037e-21)
(1.16052 -0.0105644 1.96467e-21)
(1.15665 -0.013519 6.82394e-21)
(1.15203 -0.016423 3.9003e-21)
(1.14673 -0.0193021 -3.88259e-21)
(1.14083 -0.0221184 -3.86236e-21)
(1.13439 -0.024772 4.71395e-21)
(1.12755 -0.0271154 -5.20228e-21)
(1.1643 -0.000704039 0)
(1.16345 -0.00322498 0)
(1.16157 -0.00565536 0)
(1.15874 -0.00798969 -2.96945e-22)
(1.15507 -0.0102574 -2.94662e-22)
(1.15064 -0.0124946 0)
(1.14555 -0.0147112 1.06654e-21)
(1.13986 -0.0168699 0)
(1.13367 -0.0188904 0)
(1.1271 -0.0206702 0)
(1.16273 -0.00047734 0)
(1.16193 -0.00223638 0)
(1.16015 -0.00393694 -1.96481e-21)
(1.15744 -0.00557919 -2.27304e-21)
(1.15391 -0.00718299 4.45439e-21)
(1.14963 -0.00877051 3.89287e-21)
(1.14469 -0.0103434 5.00098e-21)
(1.13915 -0.0118703 4.65492e-21)
(1.13314 -0.0132913 -1.91927e-21)
(1.12676 -0.0145377 -1.90843e-21)
(1.16168 -0.000274969 0)
(1.16093 -0.00131176 0)
(1.15922 -0.00231639 -1.96329e-21)
(1.15661 -0.00329071 1.9107e-21)
(1.15318 -0.00424606 7.60124e-21)
(1.149 -0.00519456 3.89106e-21)
(1.14415 -0.00613504 -4.04395e-21)
(1.13872 -0.00704628 -2.99418e-21)
(1.1328 -0.00789015 -2.1196e-22)
(1.12653 -0.00862547 0)
(1.16114 -8.97376e-05 0)
(1.16042 -0.000432668 1.96561e-21)
(1.15876 -0.000765294 2.13885e-25)
(1.15622 -0.00108804 -2.01339e-21)
(1.15286 -0.0014046 7.01339e-23)
(1.14875 -0.00171876 -3.89058e-21)
(1.14397 -0.00202967 -1.96506e-22)
(1.13858 -0.00232962 3.85636e-21)
(1.13269 -0.00260531 -2.16643e-21)
(1.12644 -0.00284274 -1.9081e-21)
(1.07925 0.274888 5.41663e-20)
(1.08143 0.305572 0)
(1.08403 0.341593 5.2584e-20)
(1.08717 0.384452 4.94026e-20)
(1.09099 0.435968 8.31126e-20)
(1.09569 0.498552 4.09456e-20)
(1.10152 0.575547 -1.22373e-26)
(1.10885 0.671704 -1.40643e-20)
(1.11819 0.793935 0)
(1.1303 0.952606 8.01311e-20)
(1.12179 0.268591 3.27015e-21)
(1.12891 0.298272 8.63557e-21)
(1.13732 0.33338 4.7954e-20)
(1.14728 0.37519 -1.72085e-20)
(1.1592 0.425439 6.27625e-20)
(1.17367 0.486477 0)
(1.19147 0.561576 0)
(1.21372 0.655371 0)
(1.24203 0.774613 -4.35361e-21)
(1.27879 0.929421 8.20853e-20)
(1.16229 0.255077 -4.70159e-20)
(1.17459 0.28324 7.76354e-20)
(1.18869 0.316669 -4.30538e-20)
(1.20522 0.35648 -8.44463e-20)
(1.22493 0.40429 3.73376e-20)
(1.24878 0.462331 1.04358e-19)
(1.2781 0.533714 8.863e-20)
(1.31473 0.622855 0)
(1.36132 0.736176 8.37745e-20)
(1.42183 0.883303 9.07387e-20)
(1.20152 0.233802 0)
(1.21804 0.260574 -4.14439e-20)
(1.23718 0.291844 -3.79339e-20)
(1.25971 0.328822 0)
(1.28662 0.373087 1.64339e-20)
(1.31922 0.426738 8.78237e-20)
(1.35931 0.492668 7.67841e-20)
(1.40939 0.574967 0)