/*--------------------------------*- C++ -*----------------------------------*\
| =========                 |                                                 |
| \\      /  F ield         | OpenFOAM: The Open Source CFD Toolbox           |
|  \\    /   O peration     | Version:  2112                                  |
|   \\  /    A nd           | Website:  www.openfoam.com                      |
|    \\/     M anipulation  |                                                 |
\*---------------------------------------------------------------------------*/
FoamFile
{
    version     2.0;
    format      ascii;
    arch        "LSB;label=32;scalar=64";
    class       volScalarField;
    location    "0";
    object      p;
}
// * * * * * * * * * * * * * * * * * * * * * * * * * * * * * * * * * * * * * //

dimensions      [0 2 -2 0 0 0 0];

internalField   nonuniform List<scalar> 
2000
(
-0.22656
-0.211027
-0.188039
-0.163803
-0.141571
-0.122635
-0.107216
-0.0950389
-0.0856644
-0.0789444
-0.312713
-0.296862
-0.272931
-0.246817
-0.221796
-0.199386
-0.180082
-0.163863
-0.150491
-0.139932
-0.395981
-0.379879
-0.355238
-0.327677
-0.300455
-0.275225
-0.252676
-0.232968
-0.216004
-0.20195
-0.474276
-0.45798
-0.432811
-0.404153
-0.37522
-0.347749
-0.322564
-0.299953
-0.279919
-0.262581
-0.545616
-0.529175
-0.503624
-0.47415
-0.443915
-0.414706
-0.387439
-0.362502
-0.339974
-0.319904
-0.608168
-0.591624
-0.565806
-0.535741
-0.504539
-0.474013
-0.445144
-0.418395
-0.393912
-0.371717
-0.660302
-0.643687
-0.617689
-0.58721
-0.55531
-0.523816
-0.493753
-0.46564
-0.43968
-0.415907
-0.700637
-0.683976
-0.657864
-0.627107
-0.594728
-0.562557
-0.53165
-0.502566
-0.475556
-0.450681
-0.72809
-0.711401
-0.685222
-0.654296
-0.621618
-0.58902
-0.557578
-0.527877
-0.500199
-0.474635
-0.74191
-0.725207
-0.698997
-0.667991
-0.635172
-0.602373
-0.570676
-0.540683
-0.51269
-0.486807
0.356624
0.337325
0.306377
0.27326
0.241414
0.212145
0.185837
0.162451
0.141763
0.123606
0.347178
0.336762
0.311401
0.279829
0.248054
0.218385
0.191554
0.167646
0.146485
0.12796
0.322027
0.321621
0.306967
0.281869
0.25321
0.224826
0.198371
0.174408
0.153
0.134192
0.283722
0.28963
0.285768
0.270282
0.248234
0.223955
0.199937
0.177385
0.156773
0.138388
0.233811
0.243326
0.24789
0.242166
0.228517
0.210586
0.191111
0.171754
0.153403
0.136567
0.173548
0.185205
0.195803
0.198474
0.193307
0.182735
0.169192
0.154474
0.139753
0.125717
0.104342
0.117362
0.132216
0.141603
0.144073
0.140852
0.133783
0.124511
0.11432
0.104184
0.0278223
0.0417725
0.0596631
0.0742829
0.0832522
0.0868189
0.0861728
0.0826203
0.0773237
0.0717105
-0.0541777
-0.0395551
-0.0194508
-0.00077778
0.0135774
0.023159
0.028599
0.0308471
0.0307894
0.0299296
-0.139668
-0.124535
-0.102787
-0.0809777
-0.0622485
-0.0475495
-0.0367181
-0.0291545
-0.0241848
-0.0204695
0.107569
0.0931336
0.0803508
0.069162
0.059353
0.0507347
0.0431431
0.0364388
0.0305063
0.0252529
0.0206051
0.0165062
0.0129124
0.00979067
0.00711643
0.0048731
0.00305169
0.0016513
0.000680121
0.000151732
0.111274
0.0961714
0.0829314
0.0713571
0.0612211
0.0523218
0.0444866
0.0375703
0.0314547
0.0260452
0.0212665
0.0170593
0.0133764
0.0101806
0.00744332
0.0051437
0.00326882
0.00181413
0.000784144
0.000188074
0.11677
0.1009
0.0871402
0.0750659
0.064459
0.0551228
0.0468873
0.0396109
0.0331784
0.0274967
0.0224893
0.0180923
0.0142523
0.0109244
0.00807234
0.00566805
0.00369176
0.00213248
0.000988291
0.000259682
0.12098
0.105099
0.0913564
0.0790862
0.0681578
0.0584376
0.0497993
0.0421334
0.0353465
0.0293555
0.0240855
0.0194678
0.0154407
0.0119504
0.0089517
0.00640825
0.00429274
0.00258683
0.00128081
0.000362717
0.120591
0.106218
0.0936244
0.0819109
0.0711394
0.0613377
0.0524927
0.0445722
0.0375281
0.0312993
0.0258165
0.0210089
0.0168095
0.013158
0.0100032
0.00730289
0.00502401
0.00314188
0.00163934
0.0004895
0.112914
0.10197
0.0920277
0.0819604
0.0721147
0.0627909
0.0541623
0.0463142
0.0392639
0.0329833
0.0274195
0.0225101
0.0181931
0.0144111
0.011114
0.00825937
0.00581186
0.00374273
0.00202866
0.000627629
0.0963353
0.090729
0.0849705
0.0777923
0.0698677
0.0618293
0.0540662
0.0467963
0.0401181
0.0340581
0.0286035
0.023723
0.0193773
0.015526
0.0121294
0.009151
0.00655714
0.00431733
0.00240349
0.000761165
0.0704207
0.0717201
0.0713784
0.0683257
0.0634867
0.057731
0.0516259
0.0455307
0.0396594
0.034134
0.0290177
0.0243367
0.0200935
0.0162762
0.012864
0.00983133
0.00714966
0.00478891
0.0027176
0.000874176
0.0360794
0.0453524
0.0511432
0.053266
0.0526387
0.0501131
0.0464018
0.0420427
0.0374129
0.0327662
0.0282664
0.024013
0.0200613
0.016436
0.013141
0.0101666
0.00749305
0.00509345
0.0029347
0.000954723
-0.00583311
0.0128572
0.0257731
0.0338701
0.0380391
0.0392051
0.038312
0.0360954
0.0330874
0.0296641
0.0260848
0.0225231
0.0190899
0.015851
0.0128396
0.0100659
0.00752255
0.00518886
0.00303242
0.00099606
-0.0457296
-0.0187702
0.000127747
0.0131675
0.0213388
0.0257548
0.0275176
0.0274822
0.0262676
0.0243164
0.0219425
0.0193648
0.0167321
0.0141408
0.0116484
0.00928345
0.00705233
0.00494376
0.00293196
0.000973061
-0.0722145
-0.0427987
-0.0212792
-0.00568049
0.00507879
0.0119747
0.0159814
0.0179194
0.0184183
0.0179437
0.016834
0.0153319
0.0136076
0.0117774
0.00991632
0.00806785
0.0062511
0.0044657
0.0026953
0.000905432
-0.0931072
-0.0637566
-0.0408564
-0.023526
-0.0107865
-0.00180276
0.00423314
0.00804072
0.0102102
0.0112021
0.011365
0.0109578
0.0101688
0.00913146
0.00793695
0.00664329
0.00528228
0.00386463
0.0023835
0.000812596
-0.10988
-0.0815572
-0.0583013
-0.039909
-0.0257187
-0.0150716
-0.00731499
-0.00184215
0.00187186
0.00425795
0.00565722
0.00633264
0.0064825
0.00625274
0.0057474
0.005037
0.00416497
0.00315256
0.00200224
0.000695907
-0.123425
-0.0964459
-0.0734853
-0.0545996
-0.0394362
-0.0275292
-0.0183743
-0.0114771
-0.00638847
-0.00272175
-0.000157801
0.00155905
0.00262848
0.00320267
0.00339434
0.00328365
0.00292383
0.00234557
0.00156021
0.000558017
-0.134408
-0.108829
-0.0864944
-0.0675311
-0.0517949
-0.0389882
-0.0287416
-0.0206669
-0.0143924
-0.00958311
-0.00595124
-0.00325742
-0.00130823
4.87489e-05
0.000930361
0.00142314
0.00158783
0.00146313
0.00106848
0.000402479
-0.143306
-0.119097
-0.0975353
-0.0787648
-0.0627623
-0.0493562
-0.0382903
-0.029271
-0.0220001
-0.0161963
-0.0116077
-0.00801753
-0.00524437
-0.00314074
-0.00158984
-0.000502034
0.000188547
0.000526935
0.000539697
0.000233449
-0.150486
-0.127581
-0.106845
-0.0884313
-0.0723815
-0.0586124
-0.0469566
-0.0372002
-0.029111
-0.0224593
-0.0170308
-0.012634
-0.00910359
-0.00630097
-0.00411282
-0.00244929
-0.00124169
-0.00044032
-1.26307e-05
5.54228e-05
-0.156242
-0.134559
-0.114653
-0.0966868
-0.0807389
-0.0667847
-0.0547239
-0.0444072
-0.0356596
-0.0282981
-0.0221445
-0.017034
-0.0128194
-0.00937346
-0.0065889
-0.00437805
-0.00267137
-0.0014161
-0.000574885
-0.000127018
-0.160817
-0.140265
-0.121165
-0.103691
-0.0879404
-0.0739298
-0.061608
-0.050877
-0.0416092
-0.0336626
-0.0268927
-0.0211602
-0.0163367
-0.0123077
-0.00897376
-0.00625114
-0.00407102
-0.00237896
-0.00113391
-0.000309406
-0.164419
-0.144902
-0.126565
-0.109594
-0.0940976
-0.0801197
-0.0676456
-0.0566171
-0.0469453
-0.0385233
-0.0312363
-0.024969
-0.0196112
-0.0150615
-0.0112293
-0.00803577
-0.00541407
-0.00330921
-0.00167748
-0.000487558
-0.167224
-0.14864
-0.131013
-0.114533
-0.0993185
-0.0854316
-0.0728845
-0.0616496
-0.0516694
-0.0428663
-0.035151
-0.0284297
-0.0226093
-0.0176013
-0.0133239
-0.00970389
-0.00667728
-0.00418934
-0.00219457
-0.000657676
-0.169382
-0.151628
-0.134646
-0.11863
-0.103704
-0.089942
-0.0773772
-0.0660054
-0.0557938
-0.0466889
-0.0386232
-0.0315216
-0.0253063
-0.0199007
-0.0152318
-0.0112322
-0.00784091
-0.00500422
-0.00267555
-0.000816415
-0.171018
-0.15399
-0.137583
-0.121993
-0.107344
-0.0937229
-0.0811765
-0.069719
-0.0593371
-0.0499965
-0.0416479
-0.0342321
-0.0276849
-0.0219402
-0.0169331
-0.0126018
-0.0088886
-0.00574112
-0.00311219
-0.000960906
-0.172239
-0.155832
-0.139925
-0.124711
-0.110318
-0.0968394
-0.0843325
-0.0728256
-0.0623207
-0.0527989
-0.0442256
-0.0365548
-0.0297337
-0.0237054
-0.0184124
-0.0137978
-0.00980718
-0.00638958
-0.00349769
-0.00108875
-0.17313
-0.15724
-0.141755
-0.126863
-0.112695
-0.0993482
-0.0868901
-0.0753584
-0.0647668
-0.0551085
-0.0463604
-0.0384873
-0.0314457
-0.0251866
-0.0196584
-0.0148088
-0.0105863
-0.00694125
-0.00382653
-0.001198
-0.173763
-0.158286
-0.14314
-0.12851
-0.114529
-0.101297
-0.0888881
-0.0773469
-0.066696
-0.0569378
-0.048058
-0.0400299
-0.0328172
-0.0263771
-0.020663
-0.0156263
-0.011218
-0.00738963
-0.00409437
-0.00128711
-0.174191
-0.159022
-0.144132
-0.129703
-0.115866
-0.102725
-0.0903582
-0.0788157
-0.0681262
-0.0582984
-0.0493247
-0.0411842
-0.0338462
-0.0272727
-0.0214206
-0.0162442
-0.0116964
-0.00772986
-0.00429794
-0.00135491
-0.174453
-0.159491
-0.144772
-0.130477
-0.116738
-0.103661
-0.0913248
-0.0797842
-0.0690715
-0.0591999
-0.0501657
-0.0419523
-0.0345323
-0.0278709
-0.0219275
-0.0166583
-0.0120174
-0.0079585
-0.0044349
-0.00140056
-0.174577
-0.159718
-0.145085
-0.130858
-0.117169
-0.104124
-0.091804
-0.0802651
-0.0695418
-0.0596489
-0.0505852
-0.0423359
-0.0348754
-0.0281703
-0.0221814
-0.0168659
-0.0121786
-0.00807337
-0.00450375
-0.00142352
-0.463196
-0.452024
-0.430076
-0.39825
-0.357855
-0.310548
-0.258196
-0.202532
-0.145044
-0.0896307
-0.44164
-0.431874
-0.412713
-0.384928
-0.349633
-0.308214
-0.262142
-0.212653
-0.161295
-0.112623
-0.422118
-0.413558
-0.396813
-0.372562
-0.341736
-0.305379
-0.264429
-0.219886
-0.173838
-0.130435
-0.404523
-0.396991
-0.382289
-0.36097
-0.33373
-0.301278
-0.26434
-0.224201
-0.183234
-0.144295
-0.388713
-0.382027
-0.368991
-0.350017
-0.325604
-0.296315
-0.262956
-0.227033
-0.190585
-0.155312
-0.374513
-0.368501
-0.356788
-0.339677
-0.317568
-0.291023
-0.260971
-0.228862
-0.196198
-0.164024
-0.361756
-0.356269
-0.345605
-0.330008
-0.309857
-0.285762
-0.258686
-0.229859
-0.200324
-0.170841
-0.350294
-0.345222
-0.335406
-0.321077
-0.302633
-0.280717
-0.256231
-0.230159
-0.203235
-0.17611
-0.340009
-0.335273
-0.326165
-0.312928
-0.295984
-0.27597
-0.253687
-0.229908
-0.205186
-0.180129
-0.330811
-0.326358
-0.317859
-0.305576
-0.289942
-0.271562
-0.251127
-0.229254
-0.206401
-0.183146
-0.322631
-0.318424
-0.310458
-0.299009
-0.284509
-0.267516
-0.248619
-0.228334
-0.207065
-0.185368
-0.315413
-0.311424
-0.303929
-0.293208
-0.27968
-0.263848
-0.246227
-0.227262
-0.207331
-0.186966
-0.309111
-0.305316
-0.298235
-0.288145
-0.275439
-0.260576
-0.244007
-0.226136
-0.207326
-0.188084
-0.303685
-0.300063
-0.293342
-0.283791
-0.271777
-0.257712
-0.242006
-0.225034
-0.207152
-0.18884
-0.299102
-0.295629
-0.289219
-0.280123
-0.268681
-0.25527
-0.240264
-0.224021
-0.206891
-0.189332
-0.29533
-0.291986
-0.285838
-0.27712
-0.266145
-0.253259
-0.238812
-0.223147
-0.20661
-0.18964
-0.292343
-0.289107
-0.283175
-0.274765
-0.264163
-0.25169
-0.237675
-0.222452
-0.206361
-0.189827
-0.290122
-0.286973
-0.281214
-0.273044
-0.26273
-0.250569
-0.236874
-0.221968
-0.206187
-0.189943
-0.28865
-0.285569
-0.27994
-0.27195
-0.261845
-0.249905
-0.236425
-0.221719
-0.206117
-0.190024
-0.287919
-0.284886
-0.279348
-0.271477
-0.261508
-0.249701
-0.236339
-0.221722
-0.206174
-0.190094
-0.0708233
-0.0772951
-0.08656
-0.0987372
-0.114247
-0.133347
-0.155801
-0.180289
-0.20352
-0.21922
-0.133665
-0.143928
-0.157153
-0.173325
-0.192667
-0.215186
-0.240368
-0.266674
-0.29079
-0.306771
-0.197192
-0.21097
-0.227768
-0.247397
-0.269941
-0.295231
-0.322563
-0.350262
-0.375041
-0.391243
-0.259075
-0.276161
-0.296022
-0.318529
-0.343677
-0.371168
-0.400167
-0.428919
-0.454188
-0.470557
-0.317416
-0.337256
-0.35961
-0.384432
-0.411639
-0.440839
-0.471105
-0.500637
-0.526255
-0.542748
-0.370024
-0.392014
-0.416335
-0.442968
-0.471767
-0.502264
-0.533472
-0.563567
-0.589427
-0.606007
-0.414813
-0.438413
-0.464233
-0.492241
-0.522235
-0.553692
-0.585583
-0.616074
-0.642095
-0.658733
-0.450023
-0.474767
-0.501668
-0.530668
-0.561516
-0.593652
-0.626018
-0.656777
-0.6829
-0.699575
-0.474292
-0.499773
-0.527382
-0.557028
-0.588432
-0.621004
-0.653671
-0.684596
-0.71078
-0.727476
-0.486702
-0.512557
-0.540525
-0.570499
-0.602182
-0.634973
-0.667788
-0.698793
-0.725004
-0.74171
0.149897
0.16713
0.187003
0.209687
0.235417
0.264244
0.295793
0.328763
0.359696
0.379007
0.153893
0.171559
0.191952
0.215197
0.241485
0.270737
0.302227
0.333634
0.358886
0.369162
0.159373
0.177432
0.19815
0.221513
0.247466
0.27545
0.3038
0.328641
0.343018
0.343125
0.162375
0.180149
0.200162
0.222179
0.245727
0.269596
0.291273
0.306384
0.309826
0.30354
0.158908
0.175278
0.193123
0.212006
0.231036
0.248539
0.261757
0.267016
0.261955
0.252045
0.146008
0.159715
0.174023
0.18833
0.201459
0.2116
0.216304
0.21313
0.20202
0.189986
0.122119
0.132045
0.14192
0.150855
0.157557
0.16037
0.157445
0.147564
0.132229
0.118867
0.0871109
0.0926161
0.0977068
0.10101
0.101354
0.0974273
0.0880438
0.0729756
0.0546569
0.040411
0.0427847
0.0436318
0.0435925
0.0411835
0.0355136
0.0256353
0.010927
-0.00813053
-0.0285994
-0.0434724
-0.0100869
-0.0136921
-0.0186447
-0.0262823
-0.0372699
-0.0521975
-0.0712123
-0.0933387
-0.11539
-0.13073
0.0638255
0.0632357
0.0615805
0.0599856
0.0589993
0.0586089
0.0588089
0.0596027
0.0610023
0.0630305
0.0657222
0.0691272
0.0733129
0.0783683
0.0844057
0.0915632
0.100005
0.10992
0.121525
0.134869
0.0628601
0.0621972
0.0606751
0.0592049
0.0583399
0.0580691
0.0583902
0.0593102
0.0608457
0.0630241
0.0658842
0.0694793
0.0738791
0.0791747
0.0854816
0.0929433
0.101732
0.112051
0.12413
0.138162
0.060953
0.0601635
0.0589037
0.057681
0.0570534
0.0570129
0.0575624
0.0587161
0.060499
0.0629471
0.0661072
0.0700384
0.0748132
0.080522
0.0872772
0.0952186
0.104515
0.115362
0.127985
0.142815
0.0581548
0.0572175
0.0563392
0.0554813
0.0551966
0.0554802
0.0563412
0.0578023
0.0598992
0.0626793
0.0662002
0.0705277
0.0757351
0.0819038
0.0891255
0.0975069
0.107171
0.118246
0.130868
0.145727
0.0545363
0.0534684
0.0530754
0.0526907
0.0528392
0.0535184
0.0547432
0.0565448
0.0589688
0.0620727
0.0659229
0.0705907
0.0761455
0.082649
0.0901484
0.0986729
0.108229
0.118776
0.130252
0.1436
0.0501896
0.0490419
0.0492166
0.0493971
0.0500453
0.0511612
0.0527661
0.054899
0.0576114
0.060964
0.065023
0.0698538
0.0755119
0.082027
0.089382
0.0974887
0.106164
0.115088
0.123907
0.133805
0.0452357
0.0440809
0.0448771
0.0456872
0.0468613
0.0484074
0.0503601
0.0527677
0.0556828
0.0591578
0.0632403
0.0679677
0.0733559
0.07938
0.085941
0.0928177
0.0996116
0.105665
0.110298
0.114831
0.0398421
0.0387585
0.0401982
0.0416571
0.0433164
0.0452149
0.0474171
0.0499842
0.0529645
0.0563891
0.0602679
0.0645819
0.069271
0.0742134
0.0791921
0.0838423
0.0875872
0.0895358
0.0887638
0.086371
0.0342519
0.0333075
0.0353742
0.0374227
0.039425
0.0415138
0.0437996
0.0463514
0.0492012
0.0523468
0.0557462
0.059307
0.0628681
0.0661748
0.0688454
0.0703342
0.0699179
0.0667309
0.0598624
0.0494846
0.0288593
0.0280931
0.0306656
0.0330745
0.0351601
0.0372316
0.0394136
0.0417548
0.0442552
0.046869
0.049497
0.0519719
0.0540359
0.0553117
0.055262
0.0531428
0.0479989
0.0388952
0.024934
0.0050981
0.0247334
0.023959
0.0262054
0.0284274
0.0303587
0.0322138
0.034078
0.0359709
0.0378631
0.039675
0.041268
0.0424285
0.0428436
0.0420689
0.0394796
0.0342112
0.0251468
0.0111605
-0.0087437
-0.036763
0.0212317
0.0202845
0.021842
0.023573
0.025191
0.0267043
0.028133
0.0294645
0.030644
0.0315684
0.032075
0.0319252
0.0307809
0.0281744
0.0234709
0.0158427
0.00430853
-0.0121081
-0.0344894
-0.0647629
0.0174653
0.0163412
0.017377
0.0186113
0.0198166
0.0209082
0.0218426
0.0225678
0.0230009
0.0230153
0.022427
0.0209795
0.0183242
0.0139991
0.00741107
-0.00216265
-0.0155307
-0.0335242
-0.0571159
-0.0871192
0.0133017
0.012052
0.0127132
0.0135097
0.0142758
0.0149007
0.015302
0.0153947
0.0150712
0.014185
0.0125388
0.00986968
0.00583649
7.52405e-06
-0.00814308
-0.0192219
-0.0338791
-0.0527656
-0.0765291
-0.105314
0.00878779
0.00746383
0.00784075
0.00826124
0.00860117
0.00874951
0.00860535
0.00806307
0.00699711
0.00524906
0.00261624
-0.00115847
-0.00639493
-0.0134798
-0.0228618
-0.0350331
-0.0504929
-0.0696975
-0.0929828
-0.12025
0.00401433
0.00265851
0.0028045
0.00289837
0.00284033
0.00252583
0.00184794
0.000690687
-0.0010805
-0.00362831
-0.00715191
-0.0118936
-0.0181425
-0.0262332
-0.0365361
-0.0494359
-0.0652959
-0.0844039
-0.106889
-0.132594
-0.000919508
-0.00227325
-0.00232496
-0.00251946
-0.0029428
-0.00369251
-0.00487518
-0.00660933
-0.00903105
-0.0123001
-0.0166051
-0.0221672
-0.0292397
-0.0381035
-0.0490551
-0.0623842
-0.078341
-0.0970881
-0.118636
-0.142822
-0.00591623
-0.00724098
-0.00746727
-0.00791898
-0.00867416
-0.00982397
-0.0114713
-0.0137322
-0.0167385
-0.0206415
-0.0256145
-0.0318534
-0.0395745
-0.0490074
-0.0603821
-0.073909
-0.0897498
-0.107981
-0.12855
-0.151289
-0.0108831
-0.0121579
-0.0125405
-0.0132224
-0.0142761
-0.0157872
-0.017853
-0.0205838
-0.0241033
-0.0285508
-0.0340813
-0.0408643
-0.0490798
-0.0589106
-0.0705301
-0.0840842
-0.0996688
-0.117302
-0.1369
-0.158283
-0.0157337
-0.0169427
-0.0174656
-0.0183527
-0.0196724
-0.0215046
-0.0239403
-0.0270818
-0.0310428
-0.0359484
-0.041934
-0.0491431
-0.0577222
-0.0678132
-0.0795421
-0.0930041
-0.108247
-0.125249
-0.143909
-0.164037
-0.0203883
-0.0215207
-0.0221688
-0.0232377
-0.0247916
-0.026905
-0.029662
-0.0331562
-0.0374899
-0.0427734
-0.0491228
-0.056657
-0.0654928
-0.0757368
-0.0874766
-0.100768
-0.115623
-0.131995
-0.149769
-0.168749
-0.0247748
-0.0258243
-0.0265832
-0.0278113
-0.0295689
-0.031925
-0.0349568
-0.0387487
-0.0433916
-0.0489812
-0.0556154
-0.063391
-0.0723985
-0.0827155
-0.0943983
-0.107473
-0.121924
-0.137687
-0.154643
-0.172585
-0.028829
-0.0297934
-0.030649
-0.0320148
-0.033947
-0.0365096
-0.0397725
-0.0438117
-0.0487068
-0.05454
-0.0613926
-0.0693419
-0.0784563
-0.0887891
-0.100372
-0.113208
-0.127261
-0.142456
-0.158666
-0.175685
-0.0324944
-0.0333755
-0.0343142
-0.0357971
-0.0378767
-0.0406119
-0.0440662
-0.0483072
-0.0534046
-0.059428
-0.0664445
-0.0745146
-0.083688
-0.0939987
-0.105459
-0.118053
-0.131732
-0.146409
-0.161957
-0.178167
-0.0357226
-0.0365257
-0.0375343
-0.0391149
-0.0413164
-0.0441931
-0.0478027
-0.0522053
-0.0574618
-0.0636311
-0.0707678
-0.0789184
-0.0881176
-0.0983838
-0.109714
-0.122078
-0.135418
-0.149639
-0.16461
-0.180128
-0.038473
-0.0392063
-0.0402722
-0.041932
-0.0442318
-0.0472216
-0.0509541
-0.0554832
-0.0608619
-0.0671404
-0.0743628
-0.0825646
-0.0917684
-0.10198
-0.113185
-0.125344
-0.138389
-0.15222
-0.166707
-0.181648
-0.0407122
-0.0413866
-0.0424975
-0.0442192
-0.0465953
-0.0496724
-0.0534989
-0.0581235
-0.0635932
-0.0699508
-0.0772325
-0.085465
-0.0946615
-0.104819
-0.115914
-0.127898
-0.1407
-0.154215
-0.16831
-0.18279
-0.0424142
-0.0430424
-0.0441867
-0.045954
-0.0483859
-0.0515264
-0.0554208
-0.0601138
-0.0656475
-0.0720597
-0.0793805
-0.08763
-0.0968149
-0.106925
-0.117931
-0.12978
-0.142395
-0.15567
-0.169471
-0.183605
-0.0435595
-0.0441562
-0.0453223
-0.0471196
-0.049588
-0.0527699
-0.0567083
-0.0614451
-0.0670197
-0.073466
-0.0808103
-0.0890684
-0.0982426
-0.108319
-0.119263
-0.131019
-0.143507
-0.15662
-0.170224
-0.184129
-0.0441355
-0.0447162
-0.0458931
-0.0477052
-0.0501917
-0.053394
-0.0573539
-0.0621123
-0.0677066
-0.0741693
-0.0815245
-0.0897861
-0.0989541
-0.109012
-0.119925
-0.131634
-0.144058
-0.157089
-0.170594
-0.184384
-0.0823595
-0.139623
-0.198505
-0.255276
-0.30852
-0.356517
-0.39742
-0.429601
-0.451789
-0.463126
-0.106675
-0.15703
-0.209598
-0.260011
-0.306803
-0.34876
-0.384433
-0.412463
-0.431767
-0.441612
-0.125732
-0.17064
-0.217735
-0.263048
-0.304561
-0.341313
-0.372394
-0.396783
-0.413578
-0.422131
-0.140804
-0.181058
-0.222921
-0.263694
-0.301051
-0.333759
-0.361131
-0.382481
-0.397138
-0.404578
-0.153013
-0.189399
-0.226582
-0.263009
-0.29666
-0.326079
-0.350504
-0.369404
-0.382301
-0.388808
-0.162893
-0.195974
-0.22921
-0.261684
-0.291908
-0.318469
-0.340481
-0.357417
-0.3689
-0.37465
-0.170848
-0.201036
-0.230975
-0.260026
-0.287156
-0.31116
-0.331114
-0.346443
-0.356791
-0.361932
-0.177219
-0.20485
-0.232013
-0.258167
-0.282588
-0.304312
-0.322467
-0.33644
-0.345858
-0.350508
-0.182295
-0.207664
-0.232466
-0.256187
-0.278288
-0.298011
-0.31458
-0.327383
-0.336018
-0.340259
-0.186318
-0.209694
-0.232475
-0.254155
-0.274295
-0.29229
-0.307468
-0.319244
-0.327202
-0.331094
-0.189485
-0.211121
-0.232171
-0.252137
-0.270631
-0.287152
-0.301121
-0.311995
-0.319357
-0.322943
-0.19196
-0.212091
-0.231664
-0.250192
-0.267312
-0.282588
-0.295516
-0.3056
-0.312437
-0.315752
-0.193878
-0.212725
-0.231048
-0.248375
-0.264351
-0.278584
-0.290626
-0.300026
-0.306399
-0.309473
-0.195351
-0.213119
-0.230398
-0.246728
-0.261761
-0.275128
-0.286423
-0.295235
-0.301205
-0.304067
-0.19647
-0.213352
-0.229774
-0.24529
-0.259553
-0.272209
-0.282883
-0.291198
-0.296821
-0.2995
-0.197309
-0.213486
-0.229225
-0.244091
-0.257736
-0.269818
-0.279983
-0.287887
-0.293218
-0.295741
-0.197926
-0.213571
-0.22879
-0.243154
-0.256318
-0.267948
-0.277708
-0.285278
-0.290369
-0.292764
-0.198366
-0.213646
-0.228497
-0.242499
-0.255307
-0.266595
-0.276044
-0.283353
-0.288256
-0.290549
-0.198664
-0.213739
-0.22837
-0.242141
-0.25471
-0.265758
-0.274982
-0.2821
-0.286863
-0.289081
-0.198842
-0.213873
-0.228427
-0.242091
-0.254531
-0.265436
-0.274519
-0.281512
-0.286183
-0.288351
)
;

boundaryField
{
    down
    {
        type            symmetryPlane;
    }
    right
    {
        type            fixedValue;
        value           uniform 0;
    }
    up
    {
        type            symmetryPlane;
    }
    left
    {
        type            zeroGradient;
    }
    cylinder
    {
        type            symmetry;
    }
    defaultFaces
    {
        type            empty;
    }
}


// ************************************************************************* //
