/*--------------------------------*- C++ -*----------------------------------*\
| =========                 |                                                 |
| \\      /  F ield         | OpenFOAM: The Open Source CFD Toolbox           |
|  \\    /   O peration     | Version:  2112                                  |
|   \\  /    A nd           | Website:  www.openfoam.com                      |
|    \\/     M anipulation  |                                                 |
\*---------------------------------------------------------------------------*/
FoamFile
{
    version     2.0;
    format      ascii;
    arch        "LSB;label=32;scalar=64";
    class       volScalarField;
    location    "20000";
    object      p;
}
// * * * * * * * * * * * * * * * * * * * * * * * * * * * * * * * * * * * * * //

dimensions      [0 2 -2 0 0 0 0];

internalField   nonuniform List<scalar> 
16200
(
0
-3.19126e-05
-8.33636e-05
-0.000152561
-0.000237165
-0.000334403
-0.000441224
-0.000554451
-0.000670926
-0.000787648
-0.000901882
-0.00101125
-0.0011138
-0.00120801
-0.00129285
-0.00136771
-0.00143244
-0.00148722
-0.00153259
-0.00156934
-0.00159843
-0.00162098
-0.00163815
-0.00165104
-0.00166065
-0.00166779
-0.00167299
-0.00167659
-0.00167872
-0.00167939
-0.00167861
-0.00167639
-0.00167268
-0.00166735
-0.00166006
-0.00165025
-0.00163708
-0.00161957
-0.00159659
-0.00156699
-0.00152966
-0.00148364
-0.00142816
-0.00136272
-0.00128713
-0.00120159
-0.00110675
-0.00100366
-0.000893873
-0.000779377
-0.000662579
-0.000546233
-0.000433357
-0.000327114
-0.000230679
-0.000147086
-7.90827e-05
-2.89726e-05
1.49471e-06
1.12644e-05
-1.2396e-09
-3.19143e-05
-8.33657e-05
-0.000152564
-0.000237168
-0.000334406
-0.000441227
-0.000554454
-0.000670929
-0.000787651
-0.000901885
-0.00101125
-0.0011138
-0.00120801
-0.00129285
-0.00136772
-0.00143244
-0.00148723
-0.0015326
-0.00156934
-0.00159843
-0.00162099
-0.00163815
-0.00165104
-0.00166066
-0.00166779
-0.00167299
-0.00167659
-0.00167872
-0.00167939
-0.00167861
-0.00167639
-0.00167268
-0.00166735
-0.00166006
-0.00165025
-0.00163709
-0.00161957
-0.00159659
-0.00156699
-0.00152966
-0.00148364
-0.00142816
-0.00136272
-0.00128713
-0.00120159
-0.00110675
-0.00100366
-0.000893873
-0.000779378
-0.000662579
-0.000546233
-0.000433357
-0.000327114
-0.000230679
-0.000147086
-7.90823e-05
-2.8972e-05
1.49546e-06
1.12653e-05
-1.41857e-10
-3.19131e-05
-8.33643e-05
-0.000152562
-0.000237166
-0.000334404
-0.000441225
-0.000554452
-0.000670928
-0.00078765
-0.000901884
-0.00101125
-0.0011138
-0.00120801
-0.00129285
-0.00136772
-0.00143244
-0.00148723
-0.0015326
-0.00156934
-0.00159843
-0.00162099
-0.00163815
-0.00165104
-0.00166066
-0.00166779
-0.00167299
-0.00167659
-0.00167872
-0.00167939
-0.00167861
-0.00167639
-0.00167268
-0.00166735
-0.00166006
-0.00165025
-0.00163709
-0.00161957
-0.00159659
-0.00156699
-0.00152966
-0.00148364
-0.00142816
-0.00136272
-0.00128713
-0.0012016
-0.00110675
-0.00100366
-0.000893875
-0.00077938
-0.000662581
-0.000546235
-0.000433359
-0.000327116
-0.00023068
-0.000147087
-7.90833e-05
-2.89728e-05
1.49499e-06
1.12652e-05
-0.0572887
-0.0573203
-0.0573713
-0.0574399
-0.0575238
-0.0576201
-0.057726
-0.0578382
-0.0579537
-0.0580694
-0.0581826
-0.058291
-0.0583927
-0.0584861
-0.0585703
-0.0586445
-0.0587088
-0.0587632
-0.0588083
-0.0588449
-0.0588739
-0.0588964
-0.0589136
-0.0589265
-0.0589362
-0.0589433
-0.0589485
-0.0589521
-0.0589543
-0.0589549
-0.0589542
-0.0589519
-0.0589482
-0.0589429
-0.0589356
-0.0589257
-0.0589125
-0.058895
-0.058872
-0.0588425
-0.0588054
-0.0587596
-0.0587045
-0.0586396
-0.0585646
-0.0584798
-0.0583857
-0.0582835
-0.0581747
-0.0580612
-0.0579454
-0.0578301
-0.0577182
-0.0576129
-0.0575173
-0.0574345
-0.0573671
-0.0573174
-0.0572872
-0.0572776
-0.0572887
-0.0573204
-0.0573713
-0.0574399
-0.0575238
-0.0576201
-0.057726
-0.0578382
-0.0579537
-0.0580694
-0.0581826
-0.058291
-0.0583927
-0.0584861
-0.0585703
-0.0586445
-0.0587088
-0.0587632
-0.0588083
-0.0588449
-0.0588739
-0.0588964
-0.0589136
-0.0589265
-0.0589362
-0.0589433
-0.0589485
-0.0589521
-0.0589543
-0.0589549
-0.0589542
-0.0589519
-0.0589482
-0.0589429
-0.0589356
-0.0589257
-0.0589125
-0.058895
-0.058872
-0.0588425
-0.0588054
-0.0587596
-0.0587045
-0.0586396
-0.0585646
-0.0584798
-0.0583857
-0.0582835
-0.0581747
-0.0580612
-0.0579454
-0.0578301
-0.0577182
-0.0576129
-0.0575173
-0.0574345
-0.0573671
-0.0573174
-0.0572872
-0.0572776
-0.0572887
-0.0573204
-0.0573713
-0.0574399
-0.0575238
-0.0576201
-0.057726
-0.0578382
-0.0579537
-0.0580694
-0.0581826
-0.058291
-0.0583927
-0.0584861
-0.0585703
-0.0586445
-0.0587088
-0.0587632
-0.0588083
-0.0588449
-0.0588739
-0.0588964
-0.0589136
-0.0589265
-0.0589362
-0.0589433
-0.0589485
-0.0589521
-0.0589543
-0.0589549
-0.0589542
-0.0589519
-0.0589482
-0.0589429
-0.0589356
-0.0589257
-0.0589125
-0.058895
-0.058872
-0.0588425
-0.0588054
-0.0587596
-0.0587045
-0.0586396
-0.0585646
-0.0584798
-0.0583857
-0.0582835
-0.0581747
-0.0580612
-0.0579454
-0.0578301
-0.0577182
-0.0576129
-0.0575173
-0.0574345
-0.0573671
-0.0573174
-0.0572872
-0.0572776
-0.116081
-0.116112
-0.116163
-0.116231
-0.116314
-0.116409
-0.116514
-0.116625
-0.116739
-0.116854
-0.116966
-0.117073
-0.117174
-0.117266
-0.117349
-0.117423
-0.117487
-0.117541
-0.117585
-0.117622
-0.11765
-0.117673
-0.11769
-0.117703
-0.117713
-0.11772
-0.117725
-0.117729
-0.117731
-0.117731
-0.117731
-0.117728
-0.117725
-0.117719
-0.117712
-0.117702
-0.117689
-0.117671
-0.117649
-0.117619
-0.117582
-0.117537
-0.117482
-0.117418
-0.117344
-0.11726
-0.117167
-0.117066
-0.116958
-0.116846
-0.116731
-0.116617
-0.116506
-0.116402
-0.116307
-0.116225
-0.116159
-0.116109
-0.11608
-0.11607
-0.116081
-0.116112
-0.116163
-0.116231
-0.116314
-0.116409
-0.116514
-0.116625
-0.116739
-0.116854
-0.116966
-0.117073
-0.117174
-0.117266
-0.117349
-0.117423
-0.117487
-0.117541
-0.117585
-0.117622
-0.11765
-0.117673
-0.11769
-0.117703
-0.117713
-0.11772
-0.117725
-0.117729
-0.117731
-0.117731
-0.117731
-0.117728
-0.117725
-0.117719
-0.117712
-0.117702
-0.117689
-0.117671
-0.117649
-0.117619
-0.117582
-0.117537
-0.117482
-0.117418
-0.117344
-0.11726
-0.117167
-0.117066
-0.116958
-0.116846
-0.116731
-0.116617
-0.116506
-0.116402
-0.116307
-0.116225
-0.116159
-0.116109
-0.11608
-0.11607
-0.116081
-0.116112
-0.116163
-0.116231
-0.116314
-0.116409
-0.116514
-0.116625
-0.116739
-0.116854
-0.116966
-0.117073
-0.117174
-0.117266
-0.117349
-0.117423
-0.117487
-0.117541
-0.117585
-0.117622
-0.11765
-0.117673
-0.11769
-0.117703
-0.117713
-0.11772
-0.117725
-0.117729
-0.117731
-0.117731
-0.117731
-0.117728
-0.117725
-0.117719
-0.117712
-0.117702
-0.117689
-0.117671
-0.117649
-0.117619
-0.117582
-0.117537
-0.117482
-0.117418
-0.117344
-0.11726
-0.117167
-0.117066
-0.116958
-0.116846
-0.116731
-0.116617
-0.116506
-0.116402
-0.116307
-0.116225
-0.116159
-0.116109
-0.11608
-0.11607
-0.176415
-0.176446
-0.176496
-0.176563
-0.176645
-0.176739
-0.176843
-0.176953
-0.177066
-0.17718
-0.177291
-0.177397
-0.177496
-0.177588
-0.17767
-0.177743
-0.177806
-0.17786
-0.177904
-0.17794
-0.177968
-0.177991
-0.178008
-0.17802
-0.17803
-0.178037
-0.178042
-0.178046
-0.178048
-0.178049
-0.178048
-0.178046
-0.178042
-0.178037
-0.178029
-0.17802
-0.178007
-0.177989
-0.177967
-0.177937
-0.177901
-0.177856
-0.177802
-0.177738
-0.177665
-0.177582
-0.17749
-0.17739
-0.177283
-0.177172
-0.177058
-0.176945
-0.176836
-0.176732
-0.176639
-0.176558
-0.176491
-0.176443
-0.176413
-0.176404
-0.176415
-0.176446
-0.176496
-0.176563
-0.176645
-0.176739
-0.176843
-0.176953
-0.177066
-0.17718
-0.177291
-0.177397
-0.177496
-0.177588
-0.17767
-0.177743
-0.177806
-0.17786
-0.177904
-0.17794
-0.177968
-0.177991
-0.178008
-0.17802
-0.17803
-0.178037
-0.178042
-0.178046
-0.178048
-0.178049
-0.178048
-0.178046
-0.178042
-0.178037
-0.178029
-0.17802
-0.178007
-0.177989
-0.177967
-0.177937
-0.177901
-0.177856
-0.177802
-0.177738
-0.177665
-0.177582
-0.17749
-0.17739
-0.177283
-0.177172
-0.177058
-0.176945
-0.176836
-0.176732
-0.176639
-0.176558
-0.176491
-0.176443
-0.176413
-0.176404
-0.176415
-0.176446
-0.176496
-0.176563
-0.176645
-0.176739
-0.176843
-0.176953
-0.177066
-0.17718
-0.177291
-0.177397
-0.177496
-0.177588
-0.17767
-0.177743
-0.177806
-0.17786
-0.177904
-0.17794
-0.177968
-0.177991
-0.178008
-0.17802
-0.17803
-0.178037
-0.178042
-0.178046
-0.178048
-0.178049
-0.178048
-0.178046
-0.178042
-0.178037
-0.178029
-0.17802
-0.178007
-0.177989
-0.177967
-0.177937
-0.177901
-0.177856
-0.177802
-0.177738
-0.177665
-0.177582
-0.17749
-0.17739
-0.177283
-0.177172
-0.177058
-0.176945
-0.176836
-0.176732
-0.176639
-0.176558
-0.176491
-0.176443
-0.176413
-0.176404
-0.23833
-0.238361
-0.23841
-0.238477
-0.238558
-0.238652
-0.238755
-0.238864
-0.238976
-0.239088
-0.239198
-0.239303
-0.239402
-0.239492
-0.239574
-0.239646
-0.239708
-0.239761
-0.239804
-0.23984
-0.239868
-0.23989
-0.239907
-0.23992
-0.239929
-0.239936
-0.239941
-0.239945
-0.239947
-0.239947
-0.239946
-0.239944
-0.239941
-0.239936
-0.239928
-0.239919
-0.239906
-0.239889
-0.239866
-0.239838
-0.239802
-0.239757
-0.239704
-0.239641
-0.239568
-0.239486
-0.239395
-0.239296
-0.23919
-0.23908
-0.238968
-0.238856
-0.238747
-0.238645
-0.238552
-0.238471
-0.238406
-0.238358
-0.238328
-0.238319
-0.23833
-0.238361
-0.23841
-0.238477
-0.238558
-0.238652
-0.238755
-0.238864
-0.238976
-0.239088
-0.239198
-0.239303
-0.239402
-0.239492
-0.239574
-0.239646
-0.239708
-0.239761
-0.239804
-0.23984
-0.239868
-0.23989
-0.239907
-0.23992
-0.239929
-0.239936
-0.239941
-0.239945
-0.239947
-0.239947
-0.239946
-0.239944
-0.239941
-0.239936
-0.239928
-0.239919
-0.239906
-0.239889
-0.239866
-0.239838
-0.239802
-0.239757
-0.239704
-0.239641
-0.239568
-0.239486
-0.239395
-0.239296
-0.23919
-0.23908
-0.238968
-0.238856
-0.238747
-0.238645
-0.238552
-0.238471
-0.238406
-0.238358
-0.238328
-0.238319
-0.23833
-0.238361
-0.23841
-0.238477
-0.238558
-0.238652
-0.238755
-0.238864
-0.238976
-0.239088
-0.239198
-0.239303
-0.239402
-0.239492
-0.239574
-0.239646
-0.239708
-0.239761
-0.239804
-0.23984
-0.239868
-0.23989
-0.239907
-0.23992
-0.239929
-0.239936
-0.239941
-0.239945
-0.239947
-0.239947
-0.239946
-0.239944
-0.239941
-0.239936
-0.239928
-0.239919
-0.239906
-0.239889
-0.239866
-0.239838
-0.239802
-0.239757
-0.239704
-0.239641
-0.239568
-0.239486
-0.239395
-0.239296
-0.23919
-0.23908
-0.238968
-0.238856
-0.238747
-0.238645
-0.238552
-0.238471
-0.238406
-0.238358
-0.238328
-0.238319
-0.301868
-0.301899
-0.301948
-0.302014
-0.302095
-0.302188
-0.30229
-0.302398
-0.302509
-0.30262
-0.302729
-0.302833
-0.30293
-0.30302
-0.303101
-0.303172
-0.303233
-0.303285
-0.303328
-0.303363
-0.303391
-0.303413
-0.303429
-0.303442
-0.303451
-0.303458
-0.303463
-0.303466
-0.303468
-0.303469
-0.303468
-0.303466
-0.303462
-0.303457
-0.30345
-0.303441
-0.303428
-0.303411
-0.303389
-0.303361
-0.303326
-0.303282
-0.303229
-0.303167
-0.303095
-0.303014
-0.302924
-0.302826
-0.302721
-0.302612
-0.302501
-0.30239
-0.302282
-0.302181
-0.302089
-0.302009
-0.301944
-0.301896
-0.301867
-0.301858
-0.301868
-0.301899
-0.301948
-0.302014
-0.302095
-0.302188
-0.30229
-0.302398
-0.302509
-0.30262
-0.302729
-0.302833
-0.30293
-0.30302
-0.303101
-0.303172
-0.303233
-0.303285
-0.303328
-0.303363
-0.303391
-0.303413
-0.303429
-0.303442
-0.303451
-0.303458
-0.303463
-0.303466
-0.303468
-0.303469
-0.303468
-0.303466
-0.303462
-0.303457
-0.30345
-0.303441
-0.303428
-0.303411
-0.303389
-0.303361
-0.303326
-0.303282
-0.303229
-0.303167
-0.303095
-0.303014
-0.302924
-0.302826
-0.302721
-0.302612
-0.302501
-0.30239
-0.302282
-0.302181
-0.302089
-0.302009
-0.301944
-0.301896
-0.301867
-0.301858
-0.301868
-0.301899
-0.301948
-0.302014
-0.302095
-0.302188
-0.30229
-0.302398
-0.302509
-0.30262
-0.302729
-0.302833
-0.30293
-0.30302
-0.303101
-0.303172
-0.303233
-0.303285
-0.303328
-0.303363
-0.303391
-0.303413
-0.303429
-0.303442
-0.303451
-0.303458
-0.303463
-0.303466
-0.303468
-0.303469
-0.303468
-0.303466
-0.303462
-0.303457
-0.30345
-0.303441
-0.303428
-0.303411
-0.303389
-0.303361
-0.303326
-0.303282
-0.303229
-0.303167
-0.303095
-0.303014
-0.302924
-0.302826
-0.302721
-0.302612
-0.302501
-0.30239
-0.302282
-0.302181
-0.302089
-0.302009
-0.301944
-0.301896
-0.301867
-0.301858
-0.367073
-0.367103
-0.367152
-0.367218
-0.367298
-0.36739
-0.367491
-0.367598
-0.367708
-0.367819
-0.367926
-0.368029
-0.368126
-0.368214
-0.368294
-0.368364
-0.368425
-0.368476
-0.368518
-0.368553
-0.36858
-0.368601
-0.368617
-0.368629
-0.368638
-0.368645
-0.36865
-0.368653
-0.368655
-0.368655
-0.368655
-0.368653
-0.368649
-0.368644
-0.368638
-0.368629
-0.368616
-0.3686
-0.368578
-0.368551
-0.368516
-0.368473
-0.368421
-0.368359
-0.368289
-0.368208
-0.368119
-0.368022
-0.367919
-0.367811
-0.367701
-0.367591
-0.367484
-0.367383
-0.367292
-0.367213
-0.367148
-0.367101
-0.367072
-0.367062
-0.367073
-0.367103
-0.367152
-0.367218
-0.367298
-0.36739
-0.367491
-0.367598
-0.367708
-0.367819
-0.367926
-0.368029
-0.368126
-0.368214
-0.368294
-0.368364
-0.368425
-0.368476
-0.368518
-0.368553
-0.36858
-0.368601
-0.368617
-0.368629
-0.368638
-0.368645
-0.36865
-0.368653
-0.368655
-0.368655
-0.368655
-0.368653
-0.368649
-0.368644
-0.368638
-0.368629
-0.368616
-0.3686
-0.368578
-0.368551
-0.368516
-0.368473
-0.368421
-0.368359
-0.368289
-0.368208
-0.368119
-0.368022
-0.367919
-0.367811
-0.367701
-0.367591
-0.367484
-0.367383
-0.367292
-0.367213
-0.367148
-0.367101
-0.367072
-0.367062
-0.367073
-0.367103
-0.367152
-0.367218
-0.367298
-0.36739
-0.367491
-0.367598
-0.367708
-0.367819
-0.367926
-0.368029
-0.368126
-0.368214
-0.368294
-0.368364
-0.368425
-0.368476
-0.368518
-0.368553
-0.36858
-0.368601
-0.368617
-0.368629
-0.368638
-0.368645
-0.36865
-0.368653
-0.368655
-0.368655
-0.368655
-0.368653
-0.368649
-0.368644
-0.368638
-0.368629
-0.368616
-0.3686
-0.368578
-0.368551
-0.368516
-0.368473
-0.368421
-0.368359
-0.368289
-0.368208
-0.368119
-0.368022
-0.367919
-0.367811
-0.367701
-0.367591
-0.367484
-0.367383
-0.367292
-0.367213
-0.367148
-0.367101
-0.367072
-0.367062
-0.433988
-0.434018
-0.434066
-0.434132
-0.434211
-0.434303
-0.434403
-0.434509
-0.434618
-0.434727
-0.434834
-0.434936
-0.435031
-0.435119
-0.435197
-0.435267
-0.435326
-0.435377
-0.435418
-0.435452
-0.435479
-0.435499
-0.435515
-0.435526
-0.435535
-0.435541
-0.435545
-0.435548
-0.43555
-0.435551
-0.43555
-0.435548
-0.435545
-0.435541
-0.435534
-0.435526
-0.435514
-0.435498
-0.435477
-0.43545
-0.435416
-0.435373
-0.435322
-0.435262
-0.435192
-0.435113
-0.435025
-0.434929
-0.434827
-0.43472
-0.43461
-0.434501
-0.434396
-0.434296
-0.434205
-0.434126
-0.434062
-0.434015
-0.433986
-0.433977
-0.433988
-0.434018
-0.434066
-0.434132
-0.434211
-0.434303
-0.434403
-0.434509
-0.434618
-0.434727
-0.434834
-0.434936
-0.435031
-0.435119
-0.435197
-0.435267
-0.435326
-0.435377
-0.435418
-0.435452
-0.435479
-0.435499
-0.435515
-0.435526
-0.435535
-0.435541
-0.435545
-0.435548
-0.43555
-0.435551
-0.43555
-0.435548
-0.435545
-0.435541
-0.435534
-0.435526
-0.435514
-0.435498
-0.435477
-0.43545
-0.435416
-0.435373
-0.435322
-0.435262
-0.435192
-0.435113
-0.435025
-0.434929
-0.434827
-0.43472
-0.43461
-0.434501
-0.434396
-0.434296
-0.434205
-0.434126
-0.434062
-0.434015
-0.433986
-0.433977
-0.433988
-0.434018
-0.434066
-0.434132
-0.434211
-0.434303
-0.434403
-0.434509
-0.434618
-0.434727
-0.434834
-0.434936
-0.435031
-0.435119
-0.435197
-0.435267
-0.435326
-0.435377
-0.435418
-0.435452
-0.435479
-0.435499
-0.435515
-0.435526
-0.435535
-0.435541
-0.435545
-0.435548
-0.43555
-0.435551
-0.43555
-0.435548
-0.435545
-0.435541
-0.435534
-0.435526
-0.435514
-0.435498
-0.435477
-0.43545
-0.435416
-0.435373
-0.435322
-0.435262
-0.435192
-0.435113
-0.435025
-0.434929
-0.434827
-0.43472
-0.43461
-0.434501
-0.434396
-0.434296
-0.434205
-0.434126
-0.434062
-0.434015
-0.433986
-0.433977
-0.502657
-0.502687
-0.502735
-0.5028
-0.502879
-0.50297
-0.50307
-0.503175
-0.503283
-0.503391
-0.503497
-0.503598
-0.503692
-0.503778
-0.503856
-0.503924
-0.503983
-0.504032
-0.504073
-0.504106
-0.504131
-0.504151
-0.504166
-0.504177
-0.504185
-0.504191
-0.504195
-0.504198
-0.5042
-0.5042
-0.5042
-0.504198
-0.504195
-0.504191
-0.504185
-0.504177
-0.504165
-0.50415
-0.50413
-0.504103
-0.50407
-0.504029
-0.503979
-0.503919
-0.503851
-0.503773
-0.503686
-0.503591
-0.50349
-0.503384
-0.503276
-0.503167
-0.503062
-0.502963
-0.502873
-0.502795
-0.502731
-0.502685
-0.502656
-0.502647
-0.502657
-0.502687
-0.502735
-0.5028
-0.502879
-0.50297
-0.50307
-0.503175
-0.503283
-0.503391
-0.503497
-0.503598
-0.503692
-0.503778
-0.503856
-0.503924
-0.503983
-0.504032
-0.504073
-0.504106
-0.504131
-0.504151
-0.504166
-0.504177
-0.504185
-0.504191
-0.504195
-0.504198
-0.5042
-0.5042
-0.5042
-0.504198
-0.504195
-0.504191
-0.504185
-0.504177
-0.504165
-0.50415
-0.50413
-0.504103
-0.50407
-0.504029
-0.503979
-0.503919
-0.503851
-0.503773
-0.503686
-0.503591
-0.50349
-0.503384
-0.503276
-0.503167
-0.503062
-0.502963
-0.502873
-0.502795
-0.502731
-0.502685
-0.502656
-0.502647
-0.502657
-0.502687
-0.502735
-0.5028
-0.502879
-0.50297
-0.50307
-0.503175
-0.503283
-0.503391
-0.503497
-0.503598
-0.503692
-0.503778
-0.503856
-0.503924
-0.503983
-0.504032
-0.504073
-0.504106
-0.504131
-0.504151
-0.504166
-0.504177
-0.504185
-0.504191
-0.504195
-0.504198
-0.5042
-0.5042
-0.5042
-0.504198
-0.504195
-0.504191
-0.504185
-0.504177
-0.504165
-0.50415
-0.50413
-0.504103
-0.50407
-0.504029
-0.503979
-0.503919
-0.503851
-0.503773
-0.503686
-0.503591
-0.50349
-0.503384
-0.503276
-0.503167
-0.503062
-0.502963
-0.502873
-0.502795
-0.502731
-0.502685
-0.502656
-0.502647
-0.573128
-0.573158
-0.573206
-0.57327
-0.573349
-0.573439
-0.573538
-0.573642
-0.57375
-0.573857
-0.573961
-0.574061
-0.574154
-0.574239
-0.574316
-0.574382
-0.57444
-0.574488
-0.574528
-0.57456
-0.574585
-0.574604
-0.574618
-0.574628
-0.574636
-0.574641
-0.574645
-0.574647
-0.574649
-0.574649
-0.574649
-0.574647
-0.574645
-0.574641
-0.574636
-0.574628
-0.574617
-0.574603
-0.574583
-0.574558
-0.574525
-0.574485
-0.574436
-0.574378
-0.57431
-0.574234
-0.574148
-0.574054
-0.573954
-0.573849
-0.573742
-0.573635
-0.57353
-0.573432
-0.573343
-0.573265
-0.573202
-0.573155
-0.573127
-0.573117
-0.573128
-0.573158
-0.573206
-0.57327
-0.573349
-0.573439
-0.573538
-0.573642
-0.57375
-0.573857
-0.573961
-0.574061
-0.574154
-0.574239
-0.574316
-0.574382
-0.57444
-0.574488
-0.574528
-0.57456
-0.574585
-0.574604
-0.574618
-0.574628
-0.574636
-0.574641
-0.574645
-0.574647
-0.574649
-0.574649
-0.574649
-0.574647
-0.574645
-0.574641
-0.574636
-0.574628
-0.574617
-0.574603
-0.574583
-0.574558
-0.574525
-0.574485
-0.574436
-0.574378
-0.57431
-0.574234
-0.574148
-0.574054
-0.573954
-0.573849
-0.573742
-0.573635
-0.57353
-0.573432
-0.573343
-0.573265
-0.573202
-0.573155
-0.573127
-0.573117
-0.573128
-0.573158
-0.573206
-0.57327
-0.573349
-0.573439
-0.573538
-0.573642
-0.57375
-0.573857
-0.573961
-0.574061
-0.574154
-0.574239
-0.574316
-0.574382
-0.57444
-0.574488
-0.574528
-0.57456
-0.574585
-0.574604
-0.574618
-0.574628
-0.574636
-0.574641
-0.574645
-0.574647
-0.574649
-0.574649
-0.574649
-0.574647
-0.574645
-0.574641
-0.574636
-0.574628
-0.574617
-0.574603
-0.574583
-0.574558
-0.574525
-0.574485
-0.574436
-0.574378
-0.57431
-0.574234
-0.574148
-0.574054
-0.573954
-0.573849
-0.573742
-0.573635
-0.57353
-0.573432
-0.573343
-0.573265
-0.573202
-0.573155
-0.573127
-0.573117
-0.645447
-0.645476
-0.645524
-0.645588
-0.645666
-0.645756
-0.645854
-0.645958
-0.646064
-0.646171
-0.646274
-0.646373
-0.646465
-0.646549
-0.646624
-0.646689
-0.646746
-0.646793
-0.646831
-0.646862
-0.646886
-0.646904
-0.646917
-0.646927
-0.646934
-0.646939
-0.646942
-0.646944
-0.646945
-0.646945
-0.646945
-0.646944
-0.646942
-0.646938
-0.646933
-0.646926
-0.646917
-0.646903
-0.646884
-0.64686
-0.646829
-0.64679
-0.646742
-0.646685
-0.646619
-0.646543
-0.646458
-0.646366
-0.646267
-0.646163
-0.646057
-0.64595
-0.645847
-0.645749
-0.64566
-0.645583
-0.64552
-0.645474
-0.645445
-0.645436
-0.645447
-0.645476
-0.645524
-0.645588
-0.645666
-0.645756
-0.645854
-0.645958
-0.646064
-0.646171
-0.646274
-0.646373
-0.646465
-0.646549
-0.646624
-0.646689
-0.646746
-0.646793
-0.646831
-0.646862
-0.646886
-0.646904
-0.646917
-0.646927
-0.646934
-0.646939
-0.646942
-0.646944
-0.646945
-0.646945
-0.646945
-0.646944
-0.646942
-0.646938
-0.646933
-0.646926
-0.646917
-0.646903
-0.646884
-0.64686
-0.646829
-0.64679
-0.646742
-0.646685
-0.646619
-0.646543
-0.646458
-0.646366
-0.646267
-0.646163
-0.646057
-0.64595
-0.645847
-0.645749
-0.64566
-0.645583
-0.64552
-0.645474
-0.645445
-0.645436
-0.645447
-0.645476
-0.645524
-0.645588
-0.645666
-0.645756
-0.645854
-0.645958
-0.646064
-0.646171
-0.646274
-0.646373
-0.646465
-0.646549
-0.646624
-0.646689
-0.646746
-0.646793
-0.646831
-0.646862
-0.646886
-0.646904
-0.646917
-0.646927
-0.646934
-0.646939
-0.646942
-0.646944
-0.646945
-0.646945
-0.646945
-0.646944
-0.646942
-0.646938
-0.646933
-0.646926
-0.646917
-0.646903
-0.646884
-0.64686
-0.646829
-0.64679
-0.646742
-0.646685
-0.646619
-0.646543
-0.646458
-0.646366
-0.646267
-0.646163
-0.646057
-0.64595
-0.645847
-0.645749
-0.64566
-0.645583
-0.64552
-0.645474
-0.645445
-0.645436
-0.719663
-0.719692
-0.719739
-0.719803
-0.719881
-0.71997
-0.720068
-0.720171
-0.720276
-0.720382
-0.720484
-0.720582
-0.720672
-0.720755
-0.720829
-0.720893
-0.720948
-0.720994
-0.721031
-0.721061
-0.721084
-0.721101
-0.721113
-0.721122
-0.721128
-0.721132
-0.721134
-0.721136
-0.721137
-0.721137
-0.721137
-0.721136
-0.721134
-0.721131
-0.721127
-0.721121
-0.721112
-0.721099
-0.721082
-0.721059
-0.721029
-0.720991
-0.720945
-0.720889
-0.720824
-0.72075
-0.720666
-0.720575
-0.720477
-0.720374
-0.720269
-0.720163
-0.72006
-0.719963
-0.719875
-0.719798
-0.719735
-0.719689
-0.719661
-0.719652
-0.719663
-0.719692
-0.719739
-0.719803
-0.719881
-0.71997
-0.720068
-0.720171
-0.720276
-0.720382
-0.720484
-0.720582
-0.720672
-0.720755
-0.720829
-0.720893
-0.720948
-0.720994
-0.721031
-0.721061
-0.721084
-0.721101
-0.721113
-0.721122
-0.721128
-0.721132
-0.721134
-0.721136
-0.721137
-0.721137
-0.721137
-0.721136
-0.721134
-0.721131
-0.721127
-0.721121
-0.721112
-0.721099
-0.721082
-0.721059
-0.721029
-0.720991
-0.720945
-0.720889
-0.720824
-0.72075
-0.720666
-0.720575
-0.720477
-0.720374
-0.720269
-0.720163
-0.72006
-0.719963
-0.719875
-0.719798
-0.719735
-0.719689
-0.719661
-0.719652
-0.719663
-0.719692
-0.719739
-0.719803
-0.719881
-0.71997
-0.720068
-0.720171
-0.720276
-0.720382
-0.720484
-0.720582
-0.720672
-0.720755
-0.720829
-0.720893
-0.720948
-0.720994
-0.721031
-0.721061
-0.721084
-0.721101
-0.721113
-0.721122
-0.721128
-0.721132
-0.721134
-0.721136
-0.721137
-0.721137
-0.721137
-0.721136
-0.721134
-0.721131
-0.721127
-0.721121
-0.721112
-0.721099
-0.721082
-0.721059
-0.721029
-0.720991
-0.720945
-0.720889
-0.720824
-0.72075
-0.720666
-0.720575
-0.720477
-0.720374
-0.720269
-0.720163
-0.72006
-0.719963
-0.719875
-0.719798
-0.719735
-0.719689
-0.719661
-0.719652
-0.795825
-0.795854
-0.795902
-0.795965
-0.796043
-0.796131
-0.796228
-0.796331
-0.796435
-0.79654
-0.796641
-0.796738
-0.796827
-0.796909
-0.796981
-0.797044
-0.797097
-0.797142
-0.797178
-0.797206
-0.797227
-0.797243
-0.797254
-0.797262
-0.797267
-0.79727
-0.797272
-0.797273
-0.797274
-0.797274
-0.797274
-0.797273
-0.797272
-0.79727
-0.797267
-0.797261
-0.797253
-0.797242
-0.797226
-0.797204
-0.797175
-0.797139
-0.797094
-0.79704
-0.796976
-0.796903
-0.796821
-0.796731
-0.796634
-0.796532
-0.796428
-0.796323
-0.796221
-0.796125
-0.796037
-0.79596
-0.795898
-0.795852
-0.795824
-0.795815
-0.795825
-0.795854
-0.795902
-0.795965
-0.796043
-0.796131
-0.796228
-0.796331
-0.796435
-0.79654
-0.796641
-0.796738
-0.796827
-0.796909
-0.796981
-0.797044
-0.797097
-0.797142
-0.797178
-0.797206
-0.797227
-0.797243
-0.797254
-0.797262
-0.797267
-0.79727
-0.797272
-0.797273
-0.797274
-0.797274
-0.797274
-0.797273
-0.797272
-0.79727
-0.797267
-0.797261
-0.797253
-0.797242
-0.797226
-0.797204
-0.797175
-0.797139
-0.797094
-0.79704
-0.796976
-0.796903
-0.796821
-0.796731
-0.796634
-0.796532
-0.796428
-0.796323
-0.796221
-0.796125
-0.796037
-0.79596
-0.795898
-0.795852
-0.795824
-0.795815
-0.795825
-0.795854
-0.795902
-0.795965
-0.796043
-0.796131
-0.796228
-0.796331
-0.796435
-0.79654
-0.796641
-0.796738
-0.796827
-0.796909
-0.796981
-0.797044
-0.797097
-0.797142
-0.797178
-0.797206
-0.797227
-0.797243
-0.797254
-0.797262
-0.797267
-0.79727
-0.797272
-0.797273
-0.797274
-0.797274
-0.797274
-0.797273
-0.797272
-0.79727
-0.797267
-0.797261
-0.797253
-0.797242
-0.797226
-0.797204
-0.797175
-0.797139
-0.797094
-0.79704
-0.796976
-0.796903
-0.796821
-0.796731
-0.796634
-0.796532
-0.796428
-0.796323
-0.796221
-0.796125
-0.796037
-0.79596
-0.795898
-0.795852
-0.795824
-0.795815
-0.873986
-0.874015
-0.874062
-0.874125
-0.874202
-0.87429
-0.874387
-0.874489
-0.874593
-0.874696
-0.874797
-0.874892
-0.87498
-0.87506
-0.875131
-0.875192
-0.875244
-0.875287
-0.875322
-0.875348
-0.875368
-0.875382
-0.875392
-0.875399
-0.875403
-0.875405
-0.875406
-0.875407
-0.875407
-0.875407
-0.875407
-0.875407
-0.875406
-0.875405
-0.875403
-0.875398
-0.875392
-0.875382
-0.875367
-0.875347
-0.875319
-0.875285
-0.875241
-0.875188
-0.875126
-0.875055
-0.874974
-0.874885
-0.87479
-0.874689
-0.874585
-0.874481
-0.87438
-0.874284
-0.874196
-0.87412
-0.874058
-0.874012
-0.873984
-0.873975
-0.873986
-0.874015
-0.874062
-0.874125
-0.874202
-0.87429
-0.874387
-0.874489
-0.874593
-0.874696
-0.874797
-0.874892
-0.87498
-0.87506
-0.875131
-0.875192
-0.875244
-0.875287
-0.875322
-0.875348
-0.875368
-0.875382
-0.875392
-0.875399
-0.875403
-0.875405
-0.875406
-0.875407
-0.875407
-0.875407
-0.875407
-0.875407
-0.875406
-0.875405
-0.875403
-0.875398
-0.875392
-0.875382
-0.875367
-0.875347
-0.875319
-0.875285
-0.875241
-0.875188
-0.875126
-0.875055
-0.874974
-0.874885
-0.87479
-0.874689
-0.874585
-0.874481
-0.87438
-0.874284
-0.874196
-0.87412
-0.874058
-0.874012
-0.873984
-0.873975
-0.873986
-0.874015
-0.874062
-0.874125
-0.874202
-0.87429
-0.874387
-0.874489
-0.874593
-0.874696
-0.874797
-0.874892
-0.87498
-0.87506
-0.875131
-0.875192
-0.875244
-0.875287
-0.875322
-0.875348
-0.875368
-0.875382
-0.875392
-0.875399
-0.875403
-0.875405
-0.875406
-0.875407
-0.875407
-0.875407
-0.875407
-0.875407
-0.875406
-0.875405
-0.875403
-0.875398
-0.875392
-0.875382
-0.875367
-0.875347
-0.875319
-0.875285
-0.875241
-0.875188
-0.875126
-0.875055
-0.874974
-0.874885
-0.87479
-0.874689
-0.874585
-0.874481
-0.87438
-0.874284
-0.874196
-0.87412
-0.874058
-0.874012
-0.873984
-0.873975
-0.954197
-0.954226
-0.954273
-0.954336
-0.954413
-0.9545
-0.954596
-0.954697
-0.954801
-0.954903
-0.955003
-0.955097
-0.955184
-0.955262
-0.955332
-0.955392
-0.955442
-0.955483
-0.955516
-0.955541
-0.955559
-0.955572
-0.95558
-0.955585
-0.955588
-0.955589
-0.95559
-0.95559
-0.95559
-0.955589
-0.95559
-0.95559
-0.95559
-0.955589
-0.955588
-0.955585
-0.95558
-0.955571
-0.955558
-0.955539
-0.955514
-0.95548
-0.955439
-0.955388
-0.955327
-0.955257
-0.955178
-0.95509
-0.954996
-0.954896
-0.954793
-0.95469
-0.954589
-0.954494
-0.954407
-0.954331
-0.954269
-0.954223
-0.954195
-0.954186
-0.954197
-0.954226
-0.954273
-0.954336
-0.954413
-0.9545
-0.954596
-0.954697
-0.954801
-0.954903
-0.955003
-0.955097
-0.955184
-0.955262
-0.955332
-0.955392
-0.955442
-0.955483
-0.955516
-0.955541
-0.955559
-0.955572
-0.95558
-0.955585
-0.955588
-0.955589
-0.95559
-0.95559
-0.95559
-0.955589
-0.95559
-0.95559
-0.95559
-0.955589
-0.955588
-0.955585
-0.95558
-0.955571
-0.955558
-0.955539
-0.955514
-0.95548
-0.955439
-0.955388
-0.955327
-0.955257
-0.955178
-0.95509
-0.954996
-0.954896
-0.954793
-0.95469
-0.954589
-0.954494
-0.954407
-0.954331
-0.954269
-0.954223
-0.954195
-0.954186
-0.954197
-0.954226
-0.954273
-0.954336
-0.954413
-0.9545
-0.954596
-0.954697
-0.954801
-0.954903
-0.955003
-0.955097
-0.955184
-0.955262
-0.955332
-0.955392
-0.955442
-0.955483
-0.955516
-0.955541
-0.955559
-0.955572
-0.95558
-0.955585
-0.955588
-0.955589
-0.95559
-0.95559
-0.95559
-0.955589
-0.95559
-0.95559
-0.95559
-0.955589
-0.955588
-0.955585
-0.95558
-0.955571
-0.955558
-0.955539
-0.955514
-0.95548
-0.955439
-0.955388
-0.955327
-0.955257
-0.955178
-0.95509
-0.954996
-0.954896
-0.954793
-0.95469
-0.954589
-0.954494
-0.954407
-0.954331
-0.954269
-0.954223
-0.954195
-0.954186
-1.03651
-1.03654
-1.03659
-1.03665
-1.03673
-1.03681
-1.03691
-1.03701
-1.03711
-1.03721
-1.03731
-1.03741
-1.03749
-1.03757
-1.03764
-1.03769
-1.03774
-1.03778
-1.03781
-1.03784
-1.03785
-1.03786
-1.03787
-1.03787
-1.03788
-1.03788
-1.03788
-1.03787
-1.03787
-1.03787
-1.03787
-1.03787
-1.03788
-1.03788
-1.03788
-1.03787
-1.03787
-1.03786
-1.03785
-1.03784
-1.03781
-1.03778
-1.03774
-1.03769
-1.03763
-1.03756
-1.03749
-1.0374
-1.03731
-1.03721
-1.03711
-1.037
-1.0369
-1.03681
-1.03672
-1.03665
-1.03658
-1.03654
-1.03651
-1.0365
-1.03651
-1.03654
-1.03659
-1.03665
-1.03673
-1.03681
-1.03691
-1.03701
-1.03711
-1.03721
-1.03731
-1.03741
-1.03749
-1.03757
-1.03764
-1.03769
-1.03774
-1.03778
-1.03781
-1.03784
-1.03785
-1.03786
-1.03787
-1.03787
-1.03788
-1.03788
-1.03788
-1.03787
-1.03787
-1.03787
-1.03787
-1.03787
-1.03788
-1.03788
-1.03788
-1.03787
-1.03787
-1.03786
-1.03785
-1.03784
-1.03781
-1.03778
-1.03774
-1.03769
-1.03763
-1.03756
-1.03749
-1.0374
-1.03731
-1.03721
-1.03711
-1.037
-1.0369
-1.03681
-1.03672
-1.03665
-1.03658
-1.03654
-1.03651
-1.0365
-1.03651
-1.03654
-1.03659
-1.03665
-1.03673
-1.03681
-1.03691
-1.03701
-1.03711
-1.03721
-1.03731
-1.03741
-1.03749
-1.03757
-1.03764
-1.03769
-1.03774
-1.03778
-1.03781
-1.03784
-1.03785
-1.03786
-1.03787
-1.03787
-1.03788
-1.03788
-1.03788
-1.03787
-1.03787
-1.03787
-1.03787
-1.03787
-1.03788
-1.03788
-1.03788
-1.03787
-1.03787
-1.03786
-1.03785
-1.03784
-1.03781
-1.03778
-1.03774
-1.03769
-1.03763
-1.03756
-1.03749
-1.0374
-1.03731
-1.03721
-1.03711
-1.037
-1.0369
-1.03681
-1.03672
-1.03665
-1.03658
-1.03654
-1.03651
-1.0365
-1.12099
-1.12102
-1.12106
-1.12113
-1.1212
-1.12129
-1.12138
-1.12148
-1.12159
-1.12169
-1.12178
-1.12188
-1.12196
-1.12204
-1.1221
-1.12216
-1.1222
-1.12224
-1.12227
-1.12229
-1.12231
-1.12232