/*--------------------------------*- C++ -*----------------------------------*\
| =========                 |                                                 |
| \\      /  F ield         | OpenFOAM: The Open Source CFD Toolbox           |
|  \\    /   O peration     | Version:  2112                                  |
|   \\  /    A nd           | Website:  www.openfoam.com                      |
|    \\/     M anipulation  |                                                 |
\*---------------------------------------------------------------------------*/
FoamFile
{
    version     2.0;
    format      ascii;
    arch        "LSB;label=32;scalar=64";
    class       volScalarField;
    location    "20000";
    object      p_rgh;
}
// * * * * * * * * * * * * * * * * * * * * * * * * * * * * * * * * * * * * * //

dimensions      [0 2 -2 0 0 0 0];

internalField   nonuniform List<scalar> 
16200
(
0.0282694
0.0282375
0.028186
0.0281168
0.0280322
0.027935
0.0278281
0.0277149
0.0275984
0.0274817
0.0273674
0.0272581
0.0271555
0.0270613
0.0269764
0.0269016
0.0268368
0.026782
0.0267367
0.0266999
0.0266708
0.0266482
0.0266311
0.0266182
0.0266085
0.0266014
0.0265962
0.0265926
0.0265905
0.0265898
0.0265906
0.0265928
0.0265965
0.0266018
0.0266091
0.026619
0.0266321
0.0266497
0.0266726
0.0267023
0.0267396
0.0267856
0.0268411
0.0269066
0.0269822
0.0270677
0.0271626
0.0272657
0.0273755
0.02749
0.0276068
0.0277231
0.027836
0.0279422
0.0280387
0.0281223
0.0281903
0.0282404
0.0282709
0.0282806
0.0282694
0.0282375
0.028186
0.0281168
0.0280322
0.0279349
0.0278281
0.0277149
0.0275984
0.0274817
0.0273674
0.0272581
0.0271555
0.0270613
0.0269764
0.0269016
0.0268368
0.026782
0.0267367
0.0266999
0.0266708
0.0266482
0.0266311
0.0266182
0.0266085
0.0266014
0.0265962
0.0265926
0.0265905
0.0265898
0.0265906
0.0265928
0.0265965
0.0266018
0.0266091
0.026619
0.0266321
0.0266497
0.0266726
0.0267023
0.0267396
0.0267856
0.0268411
0.0269066
0.0269822
0.0270677
0.0271626
0.0272657
0.0273754
0.02749
0.0276068
0.0277231
0.027836
0.0279422
0.0280387
0.0281223
0.0281903
0.0282404
0.0282709
0.0282806
0.0282694
0.0282375
0.028186
0.0281168
0.0280322
0.0279349
0.0278281
0.0277149
0.0275984
0.0274817
0.0273674
0.0272581
0.0271555
0.0270613
0.0269764
0.0269016
0.0268368
0.026782
0.0267367
0.0266999
0.0266708
0.0266482
0.0266311
0.0266182
0.0266085
0.0266014
0.0265962
0.0265926
0.0265905
0.0265898
0.0265906
0.0265928
0.0265965
0.0266018
0.0266091
0.026619
0.0266321
0.0266496
0.0266726
0.0267023
0.0267396
0.0267856
0.0268411
0.0269066
0.0269822
0.0270677
0.0271626
0.0272657
0.0273754
0.02749
0.0276068
0.0277231
0.027836
0.0279422
0.0280387
0.0281223
0.0281903
0.0282404
0.0282709
0.0282806
0.0282619
0.0282303
0.0281792
0.0281106
0.0280268
0.0279304
0.0278244
0.0277122
0.0275967
0.0274809
0.0273676
0.0272591
0.0271574
0.0270639
0.0269796
0.0269053
0.0268409
0.0267864
0.0267413
0.0267046
0.0266755
0.0266529
0.0266356
0.0266226
0.0266129
0.0266056
0.0266004
0.0265967
0.0265945
0.0265939
0.0265947
0.0265969
0.0266007
0.0266061
0.0266135
0.0266234
0.0266367
0.0266543
0.0266774
0.026707
0.0267442
0.02679
0.0268452
0.0269102
0.0269853
0.0270702
0.0271644
0.0272666
0.0273755
0.0274891
0.0276049
0.0277203
0.0278322
0.0279376
0.0280332
0.0281161
0.0281835
0.0282332
0.0282634
0.0282731
0.0282619
0.0282303
0.0281792
0.0281106
0.0280268
0.0279303
0.0278244
0.0277122
0.0275967
0.0274809
0.0273676
0.0272591
0.0271574
0.0270639
0.0269796
0.0269053
0.0268409
0.0267864
0.0267413
0.0267046
0.0266755
0.0266529
0.0266356
0.0266226
0.0266129
0.0266056
0.0266004
0.0265967
0.0265945
0.0265939
0.0265947
0.0265969
0.0266007
0.0266061
0.0266135
0.0266234
0.0266367
0.0266543
0.0266774
0.026707
0.0267442
0.02679
0.0268452
0.0269102
0.0269853
0.0270702
0.0271644
0.0272666
0.0273755
0.0274891
0.0276049
0.0277203
0.0278322
0.0279376
0.0280332
0.0281161
0.0281835
0.0282332
0.0282634
0.0282731
0.0282619
0.0282303
0.0281792
0.0281106
0.0280268
0.0279303
0.0278244
0.0277122
0.0275967
0.0274809
0.0273676
0.0272591
0.0271574
0.0270639
0.0269796
0.0269053
0.0268409
0.0267864
0.0267413
0.0267046
0.0266755
0.0266529
0.0266356
0.0266226
0.0266129
0.0266056
0.0266004
0.0265967
0.0265945
0.0265939
0.0265947
0.0265969
0.0266007
0.0266061
0.0266135
0.0266234
0.0266367
0.0266543
0.0266774
0.026707
0.0267442
0.02679
0.0268452
0.0269102
0.0269853
0.0270702
0.0271644
0.0272666
0.0273755
0.0274891
0.0276049
0.0277203
0.0278322
0.0279376
0.0280332
0.0281161
0.0281835
0.0282332
0.0282634
0.0282731
0.0282543
0.028223
0.0281724
0.0281045
0.0280214
0.0279259
0.027821
0.0277098
0.0275954
0.0274807
0.0273684
0.0272609
0.0271601
0.0270674
0.0269839
0.0269101
0.0268462
0.0267921
0.0267471
0.0267105
0.0266815
0.0266588
0.0266414
0.0266282
0.0266183
0.0266109
0.0266056
0.0266018
0.0265996
0.0265989
0.0265997
0.026602
0.0266059
0.0266114
0.0266189
0.026629
0.0266425
0.0266602
0.0266833
0.0267129
0.02675
0.0267956
0.0268505
0.026915
0.0269895
0.0270737
0.027167
0.0272684
0.0273763
0.0274888
0.0276036
0.0277179
0.0278287
0.0279331
0.0280278
0.0281099
0.0281767
0.0282259
0.0282558
0.0282654
0.0282543
0.028223
0.0281724
0.0281045
0.0280214
0.0279259
0.027821
0.0277098
0.0275954
0.0274807
0.0273684
0.0272609
0.0271601
0.0270674
0.0269839
0.0269101
0.0268462
0.0267921
0.0267471
0.0267105
0.0266815
0.0266588
0.0266414
0.0266282
0.0266183
0.0266109
0.0266055
0.0266018
0.0265996
0.0265989
0.0265997
0.026602
0.0266059
0.0266114
0.0266189
0.026629
0.0266425
0.0266602
0.0266833
0.0267129
0.02675
0.0267956
0.0268505
0.026915
0.0269895
0.0270737
0.027167
0.0272684
0.0273763
0.0274888
0.0276036
0.0277179
0.0278287
0.0279331
0.0280278
0.0281099
0.0281767
0.0282259
0.0282558
0.0282654
0.0282543
0.028223
0.0281724
0.0281045
0.0280214
0.0279259
0.027821
0.0277098
0.0275954
0.0274807
0.0273684
0.0272609
0.0271601
0.0270674
0.0269839
0.0269101
0.0268462
0.0267921
0.0267471
0.0267105
0.0266815
0.0266588
0.0266414
0.0266282
0.0266183
0.0266109
0.0266055
0.0266018
0.0265996
0.0265989
0.0265997
0.026602
0.0266059
0.0266114
0.0266189
0.026629
0.0266425
0.0266602
0.0266833
0.0267129
0.02675
0.0267956
0.0268505
0.026915
0.0269895
0.0270737
0.027167
0.0272684
0.0273763
0.0274888
0.0276036
0.0277179
0.0278287
0.0279331
0.0280278
0.0281099
0.0281767
0.0282259
0.0282558
0.0282654
0.0282486
0.0282175
0.0281674
0.0281
0.0280176
0.0279229
0.0278189
0.0277086
0.0275952
0.0274814
0.0273701
0.0272635
0.0271635
0.0270715
0.0269886
0.0269154
0.0268519
0.0267981
0.0267533
0.0267168
0.0266878
0.026665
0.0266475
0.0266341
0.0266241
0.0266165
0.026611
0.0266072
0.0266049
0.0266042
0.0266051
0.0266074
0.0266113
0.026617
0.0266247
0.026635
0.0266486
0.0266664
0.0266896
0.0267192
0.0267562
0.0268016
0.0268561
0.0269203
0.0269942
0.0270778
0.0271704
0.0272709
0.0273779
0.0274895
0.0276033
0.0277166
0.0278266
0.02793
0.028024
0.0281054
0.0281716
0.0282204
0.0282501
0.0282596
0.0282486
0.0282175
0.0281674
0.0281
0.0280176
0.0279229
0.0278189
0.0277086
0.0275952
0.0274814
0.0273701
0.0272635
0.0271635
0.0270715
0.0269886
0.0269154
0.0268519
0.0267981
0.0267533
0.0267168
0.0266878
0.026665
0.0266475
0.0266341
0.0266241
0.0266165
0.026611
0.0266072
0.0266049
0.0266042
0.0266051
0.0266074
0.0266113
0.026617
0.0266247
0.026635
0.0266486
0.0266664
0.0266896
0.0267192
0.0267562
0.0268016
0.0268561
0.0269203
0.0269942
0.0270778
0.0271704
0.0272709
0.0273779
0.0274895
0.0276033
0.0277166
0.0278266
0.02793
0.028024
0.0281054
0.0281716
0.0282204
0.0282501
0.0282596
0.0282486
0.0282175
0.0281674
0.0281
0.0280176
0.0279229
0.0278189
0.0277086
0.0275952
0.0274814
0.0273701
0.0272635
0.0271635
0.0270715
0.0269886
0.0269154
0.0268519
0.0267981
0.0267533
0.0267168
0.0266878
0.026665
0.0266475
0.0266341
0.0266241
0.0266165
0.026611
0.0266072
0.0266049
0.0266042
0.0266051
0.0266074
0.0266113
0.026617
0.0266247
0.026635
0.0266486
0.0266664
0.0266896
0.0267192
0.0267562
0.0268016
0.0268561
0.0269203
0.0269942
0.0270778
0.0271704
0.0272709
0.0273779
0.0274895
0.0276033
0.0277166
0.0278266
0.02793
0.028024
0.0281054
0.0281716
0.0282204
0.0282501
0.0282596
0.0282448
0.028214
0.0281642
0.0280973
0.0280155
0.0279215
0.0278182
0.0277087
0.0275961
0.0274832
0.0273727
0.0272668
0.0271676
0.0270763
0.026994
0.0269212
0.0268581
0.0268045
0.0267599
0.0267235
0.0266944
0.0266716
0.0266539
0.0266404
0.0266302
0.0266225
0.0266168
0.0266128
0.0266105
0.0266098
0.0266106
0.0266131
0.0266171
0.0266229
0.0266308
0.0266413
0.026655
0.026673
0.0266963
0.0267259
0.0267628
0.026808
0.0268623
0.0269261
0.0269995
0.0270825
0.0271744
0.0272742
0.0273804
0.0274912
0.0276041
0.0277166
0.0278258
0.0279285
0.0280218
0.0281026
0.0281683
0.0282168
0.0282463
0.0282557
0.0282448
0.0282139
0.0281642
0.0280973
0.0280155
0.0279215
0.0278182
0.0277087
0.0275961
0.0274832
0.0273727
0.0272668
0.0271675
0.0270763
0.026994
0.0269212
0.0268581
0.0268045
0.0267599
0.0267235
0.0266944
0.0266716
0.0266539
0.0266404
0.0266302
0.0266225
0.0266168
0.0266128
0.0266105
0.0266098
0.0266106
0.0266131
0.0266171
0.0266229
0.0266308
0.0266413
0.026655
0.026673
0.0266963
0.0267259
0.0267628
0.026808
0.0268623
0.0269261
0.0269995
0.0270825
0.0271744
0.0272742
0.0273804
0.0274912
0.0276041
0.0277166
0.0278258
0.0279285
0.0280218
0.0281026
0.0281683
0.0282168
0.0282463
0.0282557
0.0282448
0.028214
0.0281642
0.0280973
0.0280155
0.0279215
0.0278182
0.0277087
0.0275961
0.0274832
0.0273727
0.0272668
0.0271676
0.0270763
0.026994
0.0269212
0.0268581
0.0268045
0.0267599
0.0267235
0.0266944
0.0266716
0.0266539
0.0266404
0.0266302
0.0266225
0.0266168
0.0266128
0.0266105
0.0266098
0.0266106
0.0266131
0.0266171
0.0266229
0.0266308
0.0266413
0.026655
0.026673
0.0266963
0.0267259
0.0267628
0.026808
0.0268623
0.0269261
0.0269995
0.0270825
0.0271744
0.0272742
0.0273804
0.0274912
0.0276041
0.0277166
0.0278258
0.0279285
0.0280218
0.0281026
0.0281683
0.0282168
0.0282463
0.0282557
0.0282428
0.0282121
0.0281627
0.0280962
0.0280149
0.0279214
0.0278188
0.02771
0.0275981
0.0274859
0.0273761
0.027271
0.0271724
0.0270817
0.0269999
0.0269276
0.0268649
0.0268116
0.0267671
0.0267308
0.0267017
0.0266787
0.0266609
0.0266472
0.0266367
0.0266288
0.0266229
0.0266189
0.0266165
0.0266157
0.0266166
0.0266191
0.0266233
0.0266293
0.0266374
0.026648
0.026662
0.0266802
0.0267035
0.0267331
0.02677
0.026815
0.026869
0.0269324
0.0270054
0.0270879
0.0271792
0.0272783
0.0273838
0.0274939
0.0276061
0.0277179
0.0278263
0.0279284
0.0280211
0.0281014
0.0281668
0.028215
0.0282442
0.0282536
0.0282428
0.0282121
0.0281627
0.0280962
0.0280148
0.0279214
0.0278188
0.02771
0.0275981
0.0274859
0.0273761
0.027271
0.0271724
0.0270817
0.0269999
0.0269276
0.0268649
0.0268115
0.0267671
0.0267308
0.0267017
0.0266787
0.0266609
0.0266472
0.0266367
0.0266288
0.0266229
0.0266189
0.0266165
0.0266157
0.0266166
0.0266191
0.0266233
0.0266293
0.0266374
0.026648
0.026662
0.0266802
0.0267035
0.0267331
0.02677
0.026815
0.026869
0.0269324
0.0270054
0.0270879
0.0271792
0.0272783
0.0273838
0.0274939
0.0276061
0.0277179
0.0278263
0.0279284
0.0280211
0.0281014
0.0281668
0.028215
0.0282442
0.0282536
0.0282428
0.0282121
0.0281627
0.0280962
0.0280148
0.0279214
0.0278188
0.02771
0.0275981
0.0274859
0.0273761
0.027271
0.0271724
0.0270817
0.0269999
0.0269276
0.0268649
0.0268115
0.0267671
0.0267308
0.0267017
0.0266787
0.0266609
0.0266472
0.0266367
0.0266288
0.0266229
0.0266189
0.0266165
0.0266157
0.0266166
0.0266191
0.0266233
0.0266293
0.0266374
0.026648
0.026662
0.0266802
0.0267035
0.0267331
0.02677
0.026815
0.026869
0.0269324
0.0270054
0.0270879
0.0271792
0.0272783
0.0273838
0.0274938
0.0276061
0.0277179
0.0278263
0.0279284
0.0280211
0.0281014
0.0281668
0.028215
0.0282442
0.0282536
0.0282426
0.0282121
0.0281629
0.0280967
0.0280158
0.0279228
0.0278207
0.0277125
0.0276012
0.0274897
0.0273805
0.027276
0.027178
0.0270878
0.0270065
0.0269346
0.0268722
0.0268192
0.0267749
0.0267386
0.0267094
0.0266864
0.0266684
0.0266545
0.0266438
0.0266356
0.0266295
0.0266253
0.0266228
0.026622
0.0266229
0.0266255
0.0266299
0.0266361
0.0266444
0.0266553
0.0266695
0.0266878
0.0267113
0.0267409
0.0267777
0.0268226
0.0268764
0.0269394
0.027012
0.027094
0.0271847
0.0272833
0.0273882
0.0274976
0.0276092
0.0277203
0.0278282
0.0279298
0.028022
0.0281019
0.0281669
0.0282149
0.028244
0.0282534
0.0282426
0.0282121
0.0281629
0.0280967
0.0280158
0.0279228
0.0278207
0.0277125
0.0276012
0.0274897
0.0273805
0.027276
0.027178
0.0270878
0.0270065
0.0269346
0.0268722
0.0268192
0.0267749
0.0267386
0.0267094
0.0266864
0.0266684
0.0266545
0.0266438
0.0266356
0.0266295
0.0266253
0.0266228
0.026622
0.0266229
0.0266255
0.0266299
0.0266361
0.0266444
0.0266553
0.0266695
0.0266878
0.0267113
0.0267409
0.0267777
0.0268226
0.0268764
0.0269394
0.027012
0.027094
0.0271847
0.0272833
0.0273882
0.0274976
0.0276092
0.0277203
0.0278282
0.0279298
0.028022
0.0281019
0.0281669
0.0282149
0.028244
0.0282534
0.0282426
0.0282121
0.0281629
0.0280967
0.0280158
0.0279228
0.0278207
0.0277125
0.0276012
0.0274897
0.0273805
0.027276
0.027178
0.0270878
0.0270065
0.0269346
0.0268722
0.0268192
0.0267749
0.0267386
0.0267094
0.0266864
0.0266684
0.0266545
0.0266438
0.0266356
0.0266295
0.0266253
0.0266228
0.026622
0.0266229
0.0266255
0.0266299
0.0266361
0.0266444
0.0266553
0.0266695
0.0266878
0.0267113
0.0267409
0.0267777
0.0268226
0.0268764
0.0269394
0.027012
0.027094
0.0271847
0.0272833
0.0273882
0.0274976
0.0276092
0.0277203
0.0278282
0.0279298
0.028022
0.0281019
0.0281669
0.0282149
0.028244
0.0282534
0.0282442
0.0282138
0.0281648
0.0280989
0.0280183
0.0279257
0.027824
0.0277163
0.0276055
0.0274945
0.0273859
0.0272819
0.0271844
0.0270947
0.0270139
0.0269423
0.0268802
0.0268274
0.0267832
0.026747
0.0267178
0.0266946
0.0266764
0.0266623
0.0266513
0.0266429
0.0266365
0.0266321
0.0266295
0.0266286
0.0266296
0.0266324
0.0266369
0.0266434
0.026652
0.0266631
0.0266776
0.0266961
0.0267197
0.0267493
0.0267861
0.0268308
0.0268844
0.0269471
0.0270193
0.0271009
0.0271911
0.0272892
0.0273935
0.0275024
0.0276134
0.0277241
0.0278315
0.0279326
0.0280245
0.0281041
0.0281689
0.0282166
0.0282457
0.028255
0.0282442
0.0282138
0.0281648
0.0280989
0.0280183
0.0279257
0.027824
0.0277163
0.0276055
0.0274945
0.0273859
0.0272819
0.0271844
0.0270947
0.0270139
0.0269423
0.0268802
0.0268274
0.0267832
0.026747
0.0267178
0.0266946
0.0266764
0.0266623
0.0266513
0.0266429
0.0266365
0.0266321
0.0266295
0.0266286
0.0266296
0.0266323
0.0266369
0.0266434
0.026652
0.0266631
0.0266776
0.0266961
0.0267196
0.0267493
0.0267861
0.0268308
0.0268844
0.0269471
0.0270193
0.0271009
0.0271911
0.0272892
0.0273935
0.0275024
0.0276134
0.0277241
0.0278315
0.0279326
0.0280245
0.0281041
0.0281689
0.0282166
0.0282457
0.028255
0.0282442
0.0282138
0.0281648
0.0280989
0.0280183
0.0279257
0.027824
0.0277163
0.0276055
0.0274945
0.0273859
0.0272819
0.0271844
0.0270947
0.0270139
0.0269423
0.0268802
0.0268274
0.0267832
0.026747
0.0267178
0.0266946
0.0266764
0.0266623
0.0266513
0.0266429
0.0266365
0.0266321
0.0266295
0.0266286
0.0266296
0.0266323
0.0266369
0.0266434
0.026652
0.0266631
0.0266776
0.0266961
0.0267196
0.0267493
0.0267861
0.0268308
0.0268844
0.0269471
0.0270193
0.0271009
0.0271911
0.0272892
0.0273935
0.0275024
0.0276134
0.0277241
0.0278315
0.0279326
0.0280245
0.0281041
0.0281689
0.0282166
0.0282457
0.028255
0.0282478
0.0282174
0.0281685
0.0281028
0.0280224
0.0279301
0.0278288
0.0277214
0.027611
0.0275005
0.0273923
0.0272888
0.0271917
0.0271024
0.0270219
0.0269507
0.0268889
0.0268362
0.0267922
0.026756
0.0267267
0.0267034
0.026685
0.0266706
0.0266593
0.0266506
0.026644
0.0266393
0.0266365
0.0266356
0.0266366
0.0266396
0.0266444
0.0266511
0.02666
0.0266715
0.0266862
0.0267049
0.0267286
0.0267583
0.026795
0.0268397
0.026893
0.0269555
0.0270274
0.0271085
0.0271983
0.0272959
0.0273999
0.0275083
0.0276189
0.0277292
0.0278362
0.027937
0.0280286
0.028108
0.0281726
0.0282202
0.0282492
0.0282585
0.0282478
0.0282174
0.0281685
0.0281028
0.0280224
0.0279301
0.0278288
0.0277214
0.027611
0.0275005
0.0273923
0.0272888
0.0271917
0.0271024
0.0270219
0.0269507
0.0268889
0.0268362
0.0267922
0.026756
0.0267267
0.0267034
0.026685
0.0266706
0.0266593
0.0266506
0.026644
0.0266393
0.0266365
0.0266356
0.0266366
0.0266396
0.0266444
0.0266511
0.02666
0.0266715
0.0266862
0.0267049
0.0267286
0.0267583
0.026795
0.0268397
0.026893
0.0269555
0.0270274
0.0271085
0.0271983
0.0272959
0.0273999
0.0275083
0.0276189
0.0277292
0.0278362
0.027937
0.0280286
0.028108
0.0281726
0.0282202
0.0282492
0.0282585
0.0282478
0.0282174
0.0281685
0.0281028
0.0280224
0.0279301
0.0278288
0.0277214
0.027611
0.0275005
0.0273923
0.0272888
0.0271917
0.0271024
0.0270219
0.0269507
0.0268889
0.0268362
0.0267922
0.026756
0.0267267
0.0267034
0.026685
0.0266706
0.0266593
0.0266506
0.026644
0.0266393
0.0266365
0.0266356
0.0266366
0.0266396
0.0266444
0.0266511
0.02666
0.0266715
0.0266862
0.0267049
0.0267286
0.0267583
0.026795
0.0268397
0.026893
0.0269555
0.0270274
0.0271085
0.0271983
0.0272959
0.0273999
0.0275083
0.0276189
0.0277292
0.0278362
0.027937
0.0280286
0.028108
0.0281726
0.0282202
0.0282492
0.0282585
0.0282532
0.0282229
0.0281741
0.0281084
0.0280282
0.0279361
0.027835
0.0277278
0.0276177
0.0275075
0.0273997
0.0272965
0.0271998
0.0271109
0.0270307
0.0269598
0.0268982
0.0268457
0.0268017
0.0267655
0.0267362
0.0267127
0.0266941
0.0266794
0.0266678
0.0266587
0.0266518
0.0266469
0.0266439
0.026643
0.026644
0.0266471
0.0266522
0.0266593
0.0266685
0.0266803
0.0266953
0.0267142
0.0267381
0.0267679
0.0268046
0.0268491
0.0269022
0.0269645
0.0270361
0.0271169
0.0272064
0.0273037
0.0274072
0.0275153
0.0276256
0.0277356
0.0278424
0.027943
0.0280344
0.0281136
0.0281781
0.0282257
0.0282546
0.0282639
0.0282532
0.0282229
0.0281741
0.0281084
0.0280282
0.0279361
0.027835
0.0277278
0.0276177
0.0275075
0.0273997
0.0272965
0.0271998
0.0271109
0.0270307
0.0269598
0.0268982
0.0268457
0.0268017
0.0267655
0.0267362
0.0267127
0.0266941
0.0266794
0.0266678
0.0266587
0.0266518
0.0266469
0.0266439
0.026643
0.026644
0.0266471
0.0266522
0.0266593
0.0266685
0.0266803
0.0266953
0.0267142
0.0267381
0.0267679
0.0268046
0.0268491
0.0269022
0.0269645
0.0270361
0.0271169
0.0272064
0.0273037
0.0274072
0.0275153
0.0276256
0.0277356
0.0278424
0.027943
0.0280344
0.0281136
0.0281781
0.0282257
0.0282546
0.0282639
0.0282532
0.0282229
0.0281741
0.0281084
0.0280282
0.0279361
0.027835
0.0277278
0.0276177
0.0275075
0.0273997
0.0272965
0.0271998
0.0271109
0.0270307
0.0269598
0.0268982
0.0268457
0.0268017
0.0267655
0.0267362
0.0267127
0.0266941
0.0266794
0.0266678
0.0266587
0.0266518
0.0266469
0.0266439
0.026643
0.026644
0.0266471
0.0266522
0.0266593
0.0266685
0.0266803
0.0266953
0.0267142
0.0267381
0.0267679
0.0268046
0.0268491
0.0269022
0.0269645
0.0270361
0.0271169
0.0272064
0.0273037
0.0274072
0.0275153
0.0276256
0.0277356
0.0278424
0.027943
0.0280344
0.0281136
0.0281781
0.0282257
0.0282546
0.0282639
0.0282605
0.0282302
0.0281814
0.0281158
0.0280357
0.0279436
0.0278426
0.0277356
0.0276257
0.0275157
0.0274081
0.0273052
0.0272087
0.0271201
0.0270402
0.0269695
0.0269081
0.0268557
0.0268118
0.0267757
0.0267463
0.0267226
0.0267038
0.0266887
0.0266767
0.0266673
0.02666
0.0266548
0.0266516
0.0266506
0.0266518
0.0266551
0.0266604
0.0266679
0.0266775
0.0266897
0.026705
0.0267241
0.0267481
0.026778
0.0268147
0.0268592
0.0269121
0.0269742
0.0270456
0.0271261
0.0272153
0.0273123
0.0274156
0.0275235
0.0276336
0.0277434
0.02785
0.0279505
0.0280418
0.028121
0.0281855
0.028233
0.0282619
0.0282712
0.0282605
0.0282302
0.0281814
0.0281158
0.0280357
0.0279436
0.0278426
0.0277356
0.0276257
0.0275157
0.0274081
0.0273052
0.0272087
0.0271201
0.0270402
0.0269695
0.0269081
0.0268557
0.0268118
0.0267757
0.0267463
0.0267226
0.0267038
0.0266887
0.0266767
0.0266673
0.02666
0.0266548
0.0266516
0.0266506
0.0266518
0.0266551
0.0266604
0.0266679
0.0266775
0.0266897
0.026705
0.0267241
0.0267481
0.026778
0.0268147
0.0268592
0.0269121
0.0269742
0.0270456
0.0271261
0.0272153
0.0273123
0.0274156
0.0275235
0.0276336
0.0277434
0.02785
0.0279505
0.0280418
0.028121
0.0281855
0.028233
0.0282619
0.0282712
0.0282605
0.0282302
0.0281814
0.0281158
0.0280357
0.0279436
0.0278426
0.0277356
0.0276257
0.0275157
0.0274081
0.0273052
0.0272087
0.0271201
0.0270402
0.0269695
0.0269081
0.0268557
0.0268118
0.0267757
0.0267463
0.0267226
0.0267038
0.0266887
0.0266767
0.0266673
0.02666
0.0266548
0.0266516
0.0266506
0.0266518
0.0266551
0.0266604
0.0266679
0.0266775
0.0266897
0.026705
0.0267241
0.0267481
0.026778
0.0268147
0.0268592
0.0269121
0.0269742
0.0270456
0.0271261
0.0272153
0.0273123
0.0274156
0.0275235
0.0276336
0.0277434
0.02785
0.0279505
0.0280418
0.028121
0.0281855
0.028233
0.0282619
0.0282712
0.0282696
0.0282393
0.0281905
0.0281249
0.0280447
0.0279526
0.0278516
0.0277447
0.0276348
0.0275249
0.0274175
0.0273147
0.0272185
0.02713
0.0270503
0.0269798
0.0269186
0.0268664
0.0268226
0.0267864
0.0267569
0.0267331
0.0267139
0.0266985
0.0266862
0.0266763
0.0266686
0.026663
0.0266596
0.0266585
0.0266598
0.0266633
0.026669
0.0266769
0.026687
0.0266995
0.0267151
0.0267346
0.0267588
0.0267887
0.0268254
0.0268698
0.0269227
0.0269846
0.0270557
0.0271361
0.0272251
0.0273219
0.027425
0.0275327
0.0276427
0.0277524
0.0278591
0.0279595
0.0280508
0.0281301
0.0281946
0.0282421
0.0282711
0.0282803
0.0282696
0.0282393
0.0281905
0.0281249
0.0280447
0.0279526
0.0278516
0.0277447
0.0276348
0.0275249
0.0274175
0.0273147
0.0272185
0.02713
0.0270503
0.0269798
0.0269186
0.0268664
0.0268226
0.0267864
0.0267569
0.0267331
0.0267139
0.0266985
0.0266862
0.0266763
0.0266686
0.026663
0.0266596
0.0266585
0.0266598
0.0266633
0.026669
0.0266769
0.026687
0.0266995
0.0267151
0.0267346
0.0267588
0.0267887
0.0268254
0.0268698
0.0269227
0.0269846
0.0270557
0.0271361
0.0272251
0.0273219
0.027425
0.0275327
0.0276427
0.0277524
0.0278591
0.0279595
0.0280508
0.0281301
0.0281946
0.0282421
0.0282711
0.0282803
0.0282696
0.0282393
0.0281905
0.0281249
0.0280447
0.0279526
0.0278516
0.0277447
0.0276348
0.0275249
0.0274175
0.0273147
0.0272185
0.02713
0.0270503
0.0269798
0.0269186
0.0268664
0.0268226
0.0267864
0.0267569
0.0267331
0.0267139
0.0266985
0.0266862
0.0266763
0.0266686
0.026663
0.0266596
0.0266585
0.0266598
0.0266633
0.026669
0.0266769
0.026687
0.0266995
0.0267151
0.0267346
0.0267588
0.0267887
0.0268254
0.0268698
0.0269227
0.0269846
0.0270557
0.0271361
0.0272251
0.0273219
0.027425
0.0275327
0.0276427
0.0277524
0.0278591
0.0279595
0.0280508
0.0281301
0.0281946
0.0282421
0.0282711
0.0282803
0.0282805
0.0282502
0.0282013
0.0281355
0.0280553
0.0279631
0.027862
0.027755
0.0276452
0.0275353
0.0274279
0.0273252
0.0272291
0.0271408
0.0270612
0.0269909
0.0269298
0.0268776
0.0268338
0.0267976
0.026768
0.026744
0.0267246
0.0267088
0.026696
0.0266856
0.0266774
0.0266715
0.0266678
0.0266667
0.026668
0.0266718
0.026678
0.0266863
0.0266968
0.0267098
0.0267258
0.0267456
0.0267699
0.0268
0.0268367
0.026881
0.0269338
0.0269956
0.0270666
0.0271468
0.0272357
0.0273323
0.0274354
0.027543
0.027653
0.0277628
0.0278694
0.02797
0.0280614
0.0281407
0.0282053
0.028253
0.0282819
0.0282912
0.0282805
0.0282502
0.0282013
0.0281355
0.0280552
0.0279631
0.027862
0.027755
0.0276452
0.0275352
0.0274279
0.0273252
0.0272291
0.0271408
0.0270612
0.0269909
0.0269298
0.0268776
0.0268338
0.0267976
0.026768
0.026744
0.0267246
0.0267088
0.026696
0.0266856
0.0266774
0.0266715
0.0266678
0.0266667
0.026668
0.0266718
0.026678
0.0266863
0.0266968
0.0267098
0.0267258
0.0267456
0.0267699
0.0268
0.0268367
0.026881
0.0269338
0.0269956
0.0270666
0.0271468
0.0272357
0.0273323
0.0274354
0.027543
0.027653
0.0277628
0.0278694
0.02797
0.0280614
0.0281407
0.0282053
0.028253
0.0282819
0.0282912
0.0282805
0.0282502
0.0282013
0.0281355
0.0280553
0.0279631
0.027862
0.027755
0.0276452
0.0275353
0.0274279
0.0273252
0.0272291
0.0271408
0.0270612
0.0269909
0.0269298
0.0268776
0.0268338
0.0267976
0.026768
0.026744
0.0267246
0.0267088
0.026696
0.0266856
0.0266774
0.0266715
0.0266678
0.0266667
0.026668
0.0266718
0.026678
0.0266863
0.0266968
0.0267098
0.0267258
0.0267456
0.0267699
0.0268
0.0268367
0.026881
0.0269338
0.0269956
0.0270666
0.0271468
0.0272357
0.0273323
0.0274354
0.027543
0.027653
0.0277628
0.0278694
0.02797
0.0280614
0.0281407
0.0282053
0.028253
0.0282819
0.0282912
0.028293
0.0282626
0.0282136
0.0281477
0.0280673
0.0279749
0.0278737
0.0277666
0.0276566
0.0275466
0.0274392
0.0273365
0.0272404
0.0271522
0.0270727
0.0270025
0.0269415
0.0268894
0.0268456
0.0268094
0.0267797
0.0267555
0.0267357
0.0267195
0.0267062
0.0266953
0.0266866
0.0266802
0.0266763
0.026675
0.0266765
0.0266806
0.0266872
0.026696
0.0267071
0.0267206
0.026737
0.026757
0.0267816
0.0268118
0.0268485
0.0268928
0.0269455
0.0270072
0.0270781
0.0271582
0.027247
0.0273436
0.0274467
0.0275544
0.0276644
0.0277743
0.0278811
0.0279818
0.0280734
0.0281529
0.0282177
0.0282654
0.0282944
0.0283038
0.028293
0.0282626
0.0282136
0.0281477
0.0280673
0.0279749
0.0278737
0.0277665
0.0276566
0.0275466
0.0274392
0.0273365
0.0272404
0.0271522
0.0270727
0.0270025
0.0269415
0.0268894
0.0268456
0.0268094
0.0267797
0.0267555
0.0267357
0.0267195
0.0267062
0.0266953
0.0266866
0.0266802
0.0266763
0.026675
0.0266765
0.0266806
0.0266872
0.026696
0.0267071
0.0267206
0.026737
0.026757
0.0267816
0.0268118
0.0268485
0.0268928
0.0269455
0.0270072
0.0270781
0.0271582
0.027247
0.0273436
0.0274467
0.0275544
0.0276644
0.0277743
0.0278811
0.0279818
0.0280734
0.0281529
0.0282177
0.0282654
0.0282944
0.0283038
0.028293
0.0282626
0.0282136
0.0281477
0.0280673
0.0279749
0.0278737
0.0277665
0.0276566
0.0275466
0.0274392
0.0273365
0.0272404
0.0271522
0.0270727
0.0270025
0.0269415
0.0268894
0.0268456
0.0268094
0.0267797
0.0267555
0.0267357
0.0267195
0.0267062
0.0266953
0.0266866
0.0266802
0.0266763
0.026675
0.0266765
0.0266806
0.0266872
0.026696
0.0267071
0.0267206
0.026737
0.026757
0.0267816
0.0268118
0.0268485
0.0268928
0.0269455
0.0270072
0.0270781
0.0271582
0.027247
0.0273436
0.0274467
0.0275544
0.0276644
0.0277743
0.0278811
0.0279818
0.0280734
0.0281529
0.0282177
0.0282654
0.0282944
0.0283038
0.028307
0.0282765
0.0282273
0.0281613
0.0280806
0.027988
0.0278865
0.0277792
0.027669
0.0275589
0.0274513
0.0273486
0.0272525
0.0271643
0.0270848
0.0270147
0.0269537
0.0269017
0.026858
0.0268217
0.0267918
0.0267674
0.0267473
0.0267306
0.0267168
0.0267053
0.026696
0.0266891
0.0266848
0.0266834
0.026685
0.0266895
0.0266966
0.026706
0.0267177
0.0267317
0.0267486
0.0267689
0.0267937
0.026824
0.0268608
0.0269051
0.0269578
0.0270193
0.0270902
0.0271703
0.0272591
0.0273557
0.0274588
0.0275666
0.0276769
0.027787
0.027894
0.0279949
0.0280868
0.0281665
0.0282314
0.0282793
0.0283084
0.0283178
0.028307
0.0282765
0.0282273
0.0281612
0.0280806
0.027988
0.0278865
0.0277792
0.027669
0.0275588
0.0274513
0.0273486
0.0272525
0.0271643
0.0270848
0.0270147
0.0269537
0.0269017
0.0268579
0.0268217
0.0267918
0.0267674
0.0267473
0.0267306
0.0267168
0.0267053
0.026696
0.0266891
0.0266848
0.0266834
0.026685
0.0266895
0.0266966
0.026706
0.0267177
0.0267317
0.0267486
0.0267689
0.0267937
0.026824
0.0268608
0.0269051
0.0269578
0.0270193
0.0270902
0.0271703
0.0272591
0.0273557
0.0274588
0.0275666
0.0276769
0.027787
0.027894
0.0279949
0.0280868
0.0281665
0.0282314
0.0282793
0.0283084
0.0283178
0.028307
0.0282765
0.0282273
0.0281613
0.0280806
0.027988
0.0278865
0.0277792
0.027669
0.0275589
0.0274513
0.0273486
0.0272525
0.0271643
0.0270848
0.0270147
0.0269537
0.0269017
0.0268579
0.0268217
0.0267918
0.0267674
0.0267473
0.0267306
0.0267168
0.0267053
0.026696
0.0266891
0.0266848
0.0266834
0.026685
0.0266895
0.0266966
0.026706
0.0267177
0.0267317
0.0267486
0.0267689
0.0267937
0.026824
0.0268608
0.0269051
0.0269578
0.0270193
0.0270902
0.0271703
0.0272591
0.0273557
0.0274588
0.0275666
0.0276769
0.027787
0.027894
0.0279949
0.0280868
0.0281665
0.0282314
0.0282793
0.0283084
0.0283178
0.0283223
0.0282917
0.0282423
0.028176
0.028095
0.0280022
0.0279004
0.0277927
0.0276823
0.0275719
0.0274642
0.0273614
0.0272652
0.0271769
0.0270975
0.0270273
0.0269664
0.0269144
0.0268707
0.0268343
0.0268043
0.0267796
0.0267592
0.0267421
0.0267276
0.0267154
0.0267055
0.026698
0.0266934
0.0266919
0.0266936
0.0266985
0.0267061
0.0267162
0.0267285
0.0267432
0.0267605
0.0267813
0.0268063
0.0268367
0.0268735
0.0269178
0.0269705
0.027032
0.0271029
0.0271829
0.0272718
0.0273685
0.0274718
0.0275798
0.0276902
0.0278006
0.0279079
0.0280091
0.0281012
0.0281812
0.0282464
0.0282945
0.0283237
0.0283331
0.0283223
0.0282917
0.0282423
0.028176
0.028095
0.0280022
0.0279004
0.0277927
0.0276823
0.0275719
0.0274642
0.0273614
0.0272652
0.0271769
0.0270975
0.0270273
0.0269664
0.0269144
0.0268707
0.0268343
0.0268043
0.0267796
0.0267592
0.0267421
0.0267276
0.0267154
0.0267055
0.026698
0.0266934
0.0266919
0.0266936
0.0266985
0.0267061
0.0267162
0.0267285
0.0267432
0.0267605
0.0267813
0.0268063
0.0268367
0.0268735
0.0269178
0.0269705
0.027032
0.0271029
0.0271829
0.0272718
0.0273685
0.0274718
0.0275798
0.0276902
0.0278006
0.0279079
0.0280091
0.0281012
0.0281812
0.0282464
0.0282945
0.0283237
0.0283331
0.0283223
0.0282917
0.0282423
0.028176
0.028095
0.0280022
0.0279004
0.0277927
0.0276823
0.0275719
0.0274642
0.0273614
0.0272652
0.0271769
0.0270975
0.0270273
0.0269664
0.0269144
0.0268707
0.0268343
0.0268043
0.0267796
0.0267592
0.0267421
0.0267276
0.0267154
0.0267055
0.026698
0.0266934
0.0266919
0.0266936
0.0266985
0.0267061
0.0267162
0.0267285
0.0267432
0.0267605
0.0267813
0.0268063
0.0268367
0.0268735
0.0269178
0.0269705
0.027032
0.0271029
0.0271829
0.0272718
0.0273685
0.0274718
0.0275798
0.0276902
0.0278005
0.0279079
0.0280091
0.0281012
0.0281812
0.0282464
0.0282945
0.0283237
0.0283331
0.0283386
0.0283079
0.0282583
0.0281917
0.0281104
0.0280172
0.0279151
0.0278071
0.0276964
0.0275857
0.0274778
0.0273747
0.0272784
0.0271901
0.0271106
0.0270404
0.0269795
0.0269276
0.0268838
0.0268474
0.0268172
0.0267923
0.0267714
0.0267537
0.0267386
0.0267257
0.026715
0.026707
0.0267019
0.0267003
0.0267022
0.0267074
0.0267157
0.0267265
0.0267396
0.0267549
0.0267728
0.0267939
0.0268192
0.0268497
0.0268867
0.026931
0.0269836
0.0270451
0.027116
0.0271961
0.027285
0.0273819
0.0274853
0.0275936
0.0277043
0.027815
0.0279226
0.0280242
0.0281167
0.028197
0.0282624
0.0283107
0.02834
0.0283494
0.0283386
0.0283078
0.0282583
0.0281917
0.0281104