/*--------------------------------*- C++ -*----------------------------------*\
| =========                 |                                                 |
| \\      /  F ield         | OpenFOAM: The Open Source CFD Toolbox           |
|  \\    /   O peration     | Version:  2112                                  |
|   \\  /    A nd           | Website:  www.openfoam.com                      |
|    \\/     M anipulation  |                                                 |
\*---------------------------------------------------------------------------*/
FoamFile
{
    version     2.0;
    format      ascii;
    arch        "LSB;label=32;scalar=64";
    class       surfaceScalarField;
    location    "20000";
    object      phi;
}
// * * * * * * * * * * * * * * * * * * * * * * * * * * * * * * * * * * * * * //

dimensions      [0 3 -1 0 0 0 0];

oriented        oriented;

internalField   nonuniform List<scalar> 
32130
(
2.92542e-07
-1.89706e-07
4.75721e-07
-1.83179e-07
6.48379e-07
-1.72658e-07
8.06943e-07
-1.58563e-07
9.48368e-07
-1.41425e-07
1.07023e-06
-1.21866e-07
1.1708e-06
-1.00563e-07
1.24901e-06
-7.82119e-08
1.30451e-06
-5.5498e-08
1.33757e-06
-3.3066e-08
1.34907e-06
-1.14987e-08
1.34037e-06
8.69945e-09
1.31326e-06
2.71128e-08
1.26984e-06
4.34203e-08
1.21244e-06
5.73953e-08
1.14354e-06
6.89066e-08
1.06562e-06
7.79146e-08
9.81152e-07
8.447e-08
8.9244e-07
8.87125e-08
8.01568e-07
9.08714e-08
7.10302e-07
9.1266e-08
6.20001e-07
9.0301e-08
5.31553e-07
8.84484e-08
4.45346e-07
8.62072e-08
3.61307e-07
8.40384e-08
2.79022e-07
8.22852e-08
1.97914e-07
8.11085e-08
1.17439e-07
8.04747e-08
3.72217e-08
8.02173e-08
-4.29371e-08
8.01588e-08
-1.23164e-07
8.02274e-08
-2.0367e-07
8.05051e-08
-2.84843e-07
8.11732e-08
-3.67235e-07
8.23921e-08
-4.51418e-07
8.41827e-08
-5.37788e-07
8.637e-08
-6.26387e-07
8.85998e-08
-7.16793e-07
9.04057e-08
-8.08082e-07
9.12888e-08
-8.98863e-07
9.07808e-08
-9.87345e-07
8.84828e-08
-1.07143e-06
8.40817e-08
-1.14878e-06
7.73549e-08
-1.21695e-06
6.81688e-08
-1.27343e-06
5.64794e-08
-1.31576e-06
4.23325e-08
-1.34163e-06
2.5866e-08
-1.34894e-06
7.31351e-09
-1.33595e-06
-1.29973e-08
-1.3013e-06
-3.4644e-08
-1.24418e-06
-5.71163e-08
-1.16436e-06
-7.98263e-08
-1.06223e-06
-1.02126e-07
-9.38905e-07
-1.23328e-07
-7.9617e-07
-1.42736e-07
-6.36493e-07
-1.59677e-07
-4.6296e-07
-1.73532e-07
-2.79179e-07
-1.83782e-07
-8.91672e-08
-1.90011e-07
1.0284e-07
-1.92007e-07
2.92546e-07
-1.89706e-07
4.75725e-07
-1.83179e-07
6.48383e-07
-1.72658e-07
8.06946e-07
-1.58563e-07
9.48371e-07
-1.41425e-07
1.07024e-06
-1.21866e-07
1.1708e-06
-1.00562e-07
1.24901e-06
-7.82114e-08
1.30451e-06
-5.54975e-08
1.33757e-06
-3.30656e-08
1.34907e-06
-1.14983e-08
1.34037e-06
8.69984e-09
1.31326e-06
2.71132e-08
1.26984e-06
4.34206e-08
1.21244e-06
5.73956e-08
1.14354e-06
6.89067e-08
1.06562e-06
7.79147e-08
9.81151e-07
8.44701e-08
8.92438e-07
8.87126e-08
8.01567e-07
9.08714e-08
7.10301e-07
9.1266e-08
6.2e-07
9.0301e-08
5.31552e-07
8.84483e-08
4.45344e-07
8.62071e-08
3.61306e-07
8.40383e-08
2.79021e-07
8.22851e-08
1.97913e-07
8.11084e-08
1.17438e-07
8.04747e-08
3.72208e-08
8.02172e-08
-4.2938e-08
8.01588e-08
-1.23165e-07
8.02273e-08
-2.0367e-07
8.05051e-08
-2.84843e-07
8.11731e-08
-3.67236e-07
8.23921e-08
-4.51418e-07
8.41827e-08
-5.37788e-07
8.637e-08
-6.26388e-07
8.85998e-08
-7.16794e-07
9.04057e-08
-8.08083e-07
9.12888e-08
-8.98863e-07
9.07808e-08
-9.87346e-07
8.84828e-08
-1.07143e-06
8.40818e-08
-1.14878e-06
7.73549e-08
-1.21695e-06
6.81689e-08
-1.27343e-06
5.64795e-08
-1.31576e-06
4.23326e-08
-1.34163e-06
2.58661e-08
-1.34894e-06
7.3136e-09
-1.33595e-06
-1.29972e-08
-1.3013e-06
-3.46439e-08
-1.24419e-06
-5.71162e-08
-1.16436e-06
-7.98262e-08
-1.06223e-06
-1.02125e-07
-9.38907e-07
-1.23327e-07
-7.96171e-07
-1.42736e-07
-6.36495e-07
-1.59677e-07
-4.62962e-07
-1.73532e-07
-2.7918e-07
-1.83782e-07
-8.91689e-08
-1.90011e-07
1.02838e-07
-1.92007e-07
2.92545e-07
-1.89706e-07
4.75724e-07
-1.83179e-07
6.48382e-07
-1.72658e-07
8.06945e-07
-1.58563e-07
9.4837e-07
-1.41425e-07
1.07024e-06
-1.21866e-07
1.1708e-06
-1.00563e-07
1.24901e-06
-7.82116e-08
1.30451e-06
-5.54977e-08
1.33757e-06
-3.30658e-08
1.34907e-06
-1.14985e-08
1.34037e-06
8.69967e-09
1.31326e-06
2.7113e-08
1.26984e-06
4.34205e-08
1.21244e-06
5.73955e-08
1.14354e-06
6.89067e-08
1.06562e-06
7.79147e-08
9.81152e-07
8.44701e-08
8.92439e-07
8.87126e-08
8.01568e-07
9.08714e-08
7.10302e-07
9.1266e-08
6.20001e-07
9.0301e-08
5.31553e-07
8.84483e-08
4.45345e-07
8.62071e-08
3.61307e-07
8.40383e-08
2.79022e-07
8.22852e-08
1.97914e-07
8.11084e-08
1.17439e-07
8.04747e-08
3.72217e-08
8.02172e-08
-4.2937e-08
8.01587e-08
-1.23164e-07
8.02273e-08
-2.03669e-07
8.05051e-08
-2.84842e-07
8.11731e-08
-3.67235e-07
8.2392e-08
-4.51417e-07
8.41827e-08
-5.37787e-07
8.637e-08
-6.26387e-07
8.85997e-08
-7.16793e-07
9.04057e-08
-8.08081e-07
9.12888e-08
-8.98862e-07
9.07808e-08
-9.87345e-07
8.84828e-08
-1.07143e-06
8.40818e-08
-1.14878e-06
7.7355e-08
-1.21695e-06
6.8169e-08
-1.27343e-06
5.64796e-08
-1.31576e-06
4.23328e-08
-1.34163e-06
2.58664e-08
-1.34894e-06
7.31386e-09
-1.33595e-06
-1.29969e-08
-1.3013e-06
-3.46436e-08
-1.24419e-06
-5.71159e-08
-1.16436e-06
-7.98259e-08
-1.06224e-06
-1.02125e-07
-9.38909e-07
-1.23327e-07
-7.96173e-07
-1.42735e-07
-6.36497e-07
-1.59677e-07
-4.62965e-07
-1.73532e-07
-2.79183e-07
-1.83782e-07
-8.91717e-08
-1.90011e-07
-1.92007e-07
8.72795e-07
-7.55746e-07
1.4198e-06
-7.30189e-07
1.93613e-06
-6.88986e-07
2.4113e-06
-6.33731e-07
2.83634e-06
-5.6646e-07
3.20403e-06
-4.89564e-07
3.50912e-06
-4.05651e-07
3.74833e-06
-3.17416e-07
3.92035e-06
-2.2752e-07
4.02576e-06
-1.38484e-07
4.06687e-06
-5.26008e-08
4.04744e-06
2.81264e-08
3.97252e-06
1.02031e-07
3.84813e-06
1.67807e-07
3.68102e-06
2.2451e-07
3.47836e-06
2.71568e-07
3.2475e-06
3.0877e-07
2.99571e-06
3.36263e-07
2.72987e-06
3.54552e-07
2.45624e-06
3.64505e-07
2.18015e-06
3.6735e-07
1.90579e-06
3.64663e-07
1.63595e-06
3.58289e-07
1.37197e-06
3.50186e-07
1.11384e-06
3.42166e-07
8.60535e-07
3.35594e-07
6.10512e-07
3.31131e-07
3.62294e-07
3.28693e-07
1.14828e-07
3.27683e-07
-1.32461e-07
3.27448e-07
-3.79957e-07
3.27723e-07
-6.28263e-07
3.28812e-07
-8.78468e-07
3.31378e-07
-1.13207e-06
3.35997e-07
-1.39059e-06
3.42704e-07
-1.65501e-06
3.50782e-07
-1.92523e-06
3.58826e-07
-2.19983e-06
3.65002e-07
-2.47589e-06
3.67353e-07
-2.74916e-06
3.64049e-07
-3.01422e-06
3.53539e-07
-3.26475e-06
3.34617e-07
-3.49384e-06
3.06443e-07
-3.69421e-06
2.68539e-07
-3.85851e-06
2.20781e-07
-3.97959e-06
1.63407e-07
-4.05074e-06
9.70162e-08
-4.066e-06
2.25766e-08
-4.02042e-06
-5.85781e-08
-3.91031e-06
-1.44756e-07
-3.73349e-06
-2.33933e-07
-3.48952e-06
-3.23796e-07
-3.17984e-06
-4.11812e-07
-2.80785e-06
-4.95314e-07
-2.37898e-06
-5.71608e-07
-1.90056e-06
-6.38098e-07
-1.38168e-06
-6.92412e-07
-8.32911e-07
-7.32548e-07
-2.65981e-07
-7.56941e-07
3.06768e-07
-7.64756e-07
8.72807e-07
-7.55746e-07
1.41982e-06
-7.30188e-07
1.93614e-06
-6.88985e-07
2.41131e-06
-6.3373e-07
2.83634e-06
-5.66458e-07
3.20404e-06
-4.89563e-07
3.50913e-06
-4.05649e-07
3.74833e-06
-3.17414e-07
3.92035e-06
-2.27518e-07
4.02577e-06
-1.38482e-07
4.06687e-06
-5.25991e-08
4.04744e-06
2.8128e-08
3.97252e-06
1.02033e-07
3.84813e-06
1.67808e-07
3.68102e-06
2.24511e-07
3.47836e-06
2.71568e-07
3.2475e-06
3.0877e-07
2.99571e-06
3.36263e-07
2.72987e-06
3.54553e-07
2.45623e-06
3.64505e-07
2.18015e-06
3.6735e-07
1.90579e-06
3.64663e-07
1.63595e-06
3.58289e-07
1.37197e-06
3.50186e-07
1.11384e-06
3.42166e-07
8.60532e-07
3.35594e-07
6.10509e-07
3.31131e-07
3.62291e-07
3.28693e-07
1.14825e-07
3.27683e-07
-1.32463e-07
3.27448e-07
-3.79959e-07
3.27723e-07
-6.28265e-07
3.28811e-07
-8.7847e-07
3.31378e-07
-1.13207e-06
3.35997e-07
-1.3906e-06
3.42704e-07
-1.65501e-06
3.50782e-07
-1.92524e-06
3.58826e-07
-2.19983e-06
3.65002e-07
-2.4759e-06
3.67353e-07
-2.74916e-06
3.64049e-07
-3.01422e-06
3.53539e-07
-3.26476e-06
3.34617e-07
-3.49384e-06
3.06443e-07
-3.69421e-06
2.68539e-07
-3.85852e-06
2.20781e-07
-3.97959e-06
1.63408e-07
-4.05074e-06
9.70165e-08
-4.06601e-06
2.2577e-08
-4.02042e-06
-5.85777e-08
-3.91031e-06
-1.44756e-07
-3.7335e-06
-2.33932e-07
-3.48953e-06
-3.23796e-07
-3.17984e-06
-4.11812e-07
-2.80785e-06
-4.95314e-07
-2.37898e-06
-5.71608e-07
-1.90056e-06
-6.38098e-07
-1.38168e-06
-6.92412e-07
-8.32916e-07
-7.32548e-07
-2.65986e-07
-7.56941e-07
3.06763e-07
-7.64757e-07
8.72803e-07
-7.55746e-07
1.41981e-06
-7.30189e-07
1.93614e-06
-6.88985e-07
2.41131e-06
-6.3373e-07
2.83634e-06
-5.66459e-07
3.20404e-06
-4.89564e-07
3.50913e-06
-4.0565e-07
3.74833e-06
-3.17414e-07
3.92035e-06
-2.27519e-07
4.02577e-06
-1.38483e-07
4.06687e-06
-5.25999e-08
4.04744e-06
2.81273e-08
3.97252e-06
1.02032e-07
3.84813e-06
1.67807e-07
3.68102e-06
2.2451e-07
3.47836e-06
2.71568e-07
3.2475e-06
3.0877e-07
2.99571e-06
3.36263e-07
2.72987e-06
3.54553e-07
2.45624e-06
3.64505e-07
2.18015e-06
3.6735e-07
1.90579e-06
3.64663e-07
1.63595e-06
3.58289e-07
1.37197e-06
3.50186e-07
1.11384e-06
3.42166e-07
8.60534e-07
3.35594e-07
6.10512e-07
3.31131e-07
3.62294e-07
3.28693e-07
1.14828e-07
3.27683e-07
-1.32461e-07
3.27448e-07
-3.79956e-07
3.27723e-07
-6.28262e-07
3.28811e-07
-8.78467e-07
3.31378e-07
-1.13207e-06
3.35997e-07
-1.39059e-06
3.42704e-07
-1.65501e-06
3.50782e-07
-1.92523e-06
3.58826e-07
-2.19983e-06
3.65002e-07
-2.47589e-06
3.67353e-07
-2.74916e-06
3.64049e-07
-3.01422e-06
3.53539e-07
-3.26475e-06
3.34617e-07
-3.49384e-06
3.06444e-07
-3.69421e-06
2.68539e-07
-3.85851e-06
2.20782e-07
-3.97959e-06
1.63408e-07
-4.05074e-06
9.70174e-08
-4.06601e-06
2.2578e-08
-4.02043e-06
-5.85766e-08
-3.91031e-06
-1.44754e-07
-3.7335e-06
-2.33931e-07
-3.48953e-06
-3.23794e-07
-3.17985e-06
-4.11811e-07
-2.80786e-06
-4.95313e-07
-2.37899e-06
-5.71606e-07
-1.90057e-06
-6.38097e-07
-1.38169e-06
-6.92411e-07
-8.32924e-07
-7.32547e-07
-2.65994e-07
-7.56941e-07
-7.64756e-07
1.46111e-06
-1.7034e-06
2.37754e-06
-1.64663e-06
3.24362e-06
-1.55507e-06
4.04208e-06
-1.43218e-06
4.75803e-06
-1.28242e-06
5.37946e-06
-1.11099e-06
5.89744e-06
-9.23632e-07
6.30629e-06
-7.26257e-07
6.60351e-06
-5.24744e-07
6.78971e-06
-3.24683e-07
6.8683e-06
-1.3119e-07
6.84519e-06
5.12394e-08
6.72839e-06
2.18829e-07
6.52761e-06
3.6858e-07
6.25383e-06
4.98296e-07
5.9188e-06
6.06593e-07
5.53468e-06
6.92896e-07
5.1135e-06
7.57435e-07
4.66681e-06
8.01248e-07
4.20511e-06
8.26199e-07
3.73748e-06
8.34982e-07
3.27107e-06
8.31074e-07
2.81079e-06
8.18571e-07
2.35914e-06
8.01832e-07
1.9164e-06
7.84909e-07
1.48112e-06
7.70871e-07
1.051e-06
7.61252e-07
6.23743e-07
7.55951e-07
1.97699e-07
7.53728e-07
-2.28058e-07
7.53204e-07
-6.54151e-07
7.53817e-07
-1.08155e-06
7.56209e-07
-1.51196e-06
7.61787e-07
-1.9477e-06
7.71736e-07
-2.39104e-06
7.86052e-07
-2.84334e-06
8.0308e-07
-3.30418e-06
8.19659e-07
-3.77087e-06
8.31694e-07
-4.23834e-06
8.34827e-07
-4.69929e-06
8.24997e-07
-5.14453e-06
7.9878e-07
-5.56345e-06
7.5354e-07
-5.94448e-06
6.87473e-07
-6.27554e-06
5.99598e-07
-6.5445e-06
4.89744e-07
-6.73964e-06
3.58543e-07
-6.85006e-06
2.07435e-07
-6.86616e-06
3.86784e-08
-6.78006e-06
-1.44675e-07
-6.58603e-06
-3.38794e-07
-6.28082e-06
-5.39135e-07
-5.86408e-06
-7.40543e-07
-5.33849e-06
-9.37401e-07
-4.70998e-06
-1.12382e-06
-3.98771e-06
-1.29388e-06
-3.18391e-06
-1.4419e-06
-2.31363e-06
-1.56268e-06
-1.39432e-06
-1.65187e-06
-4.45197e-07
-1.70606e-06
5.13469e-07
-1.72342e-06
1.46113e-06
-1.7034e-06
2.37756e-06
-1.64662e-06
3.24364e-06
-1.55506e-06
4.04209e-06
-1.43218e-06
4.75805e-06
-1.28241e-06
5.37948e-06
-1.11099e-06
5.89745e-06
-9.23628e-07
6.30629e-06
-7.26253e-07
6.60352e-06
-5.2474e-07
6.78971e-06
-3.24679e-07
6.8683e-06
-1.31186e-07
6.84518e-06
5.12429e-08
6.72839e-06
2.18832e-07
6.52761e-06
3.68583e-07
6.25382e-06
4.98298e-07
5.9188e-06
6.06595e-07
5.53467e-06
6.92898e-07
5.1135e-06
7.57436e-07
4.6668e-06
8.01248e-07
4.20511e-06
8.262e-07
3.73747e-06
8.34982e-07
3.27106e-06
8.31074e-07
2.81078e-06
8.18571e-07
2.35914e-06
8.01831e-07
1.91639e-06
7.84908e-07
1.48112e-06
7.7087e-07
1.051e-06
7.61252e-07
6.23738e-07
7.5595e-07
1.97694e-07
7.53727e-07
-2.28062e-07
7.53204e-07
-6.54155e-07
7.53816e-07
-1.08155e-06
7.56209e-07
-1.51196e-06
7.61787e-07
-1.9477e-06
7.71736e-07
-2.39105e-06
7.86052e-07
-2.84335e-06
8.0308e-07
-3.30418e-06
8.19659e-07
-3.77087e-06
8.31694e-07
-4.23834e-06
8.34827e-07
-4.69929e-06
8.24997e-07
-5.14453e-06
7.9878e-07
-5.56346e-06
7.5354e-07
-5.94449e-06
6.87473e-07
-6.27555e-06
5.99599e-07
-6.54451e-06
4.89744e-07
-6.73964e-06
3.58543e-07
-6.85006e-06
2.07436e-07
-6.86617e-06
3.86791e-08
-6.78007e-06
-1.44674e-07
-6.58603e-06
-3.38793e-07
-6.28083e-06
-5.39134e-07
-5.86408e-06
-7.40542e-07
-5.3385e-06
-9.374e-07
-4.70999e-06
-1.12382e-06
-3.98771e-06
-1.29388e-06
-3.18391e-06
-1.4419e-06
-2.31364e-06
-1.56268e-06
-1.39432e-06
-1.65187e-06
-4.45206e-07
-1.70606e-06
5.13461e-07
-1.72342e-06
1.46112e-06
-1.7034e-06
2.37756e-06
-1.64663e-06
3.24364e-06
-1.55507e-06
4.04209e-06
-1.43218e-06
4.75804e-06
-1.28241e-06
5.37947e-06
-1.11099e-06
5.89745e-06
-9.2363e-07
6.30629e-06
-7.26255e-07
6.60352e-06
-5.24741e-07
6.78971e-06
-3.24681e-07
6.8683e-06
-1.31188e-07
6.84519e-06
5.12414e-08
6.72839e-06
2.1883e-07
6.52761e-06
3.68582e-07
6.25383e-06
4.98297e-07
5.9188e-06
6.06594e-07
5.53467e-06
6.92897e-07
5.1135e-06
7.57435e-07
4.66681e-06
8.01248e-07
4.20511e-06
8.262e-07
3.73748e-06
8.34982e-07
3.27107e-06
8.31074e-07
2.81079e-06
8.18571e-07
2.35914e-06
8.01832e-07
1.9164e-06
7.84908e-07
1.48112e-06
7.7087e-07
1.051e-06
7.61252e-07
6.23743e-07
7.5595e-07
1.97699e-07
7.53727e-07
-2.28057e-07
7.53203e-07
-6.5415e-07
7.53816e-07
-1.08155e-06
7.56209e-07
-1.51196e-06
7.61786e-07
-1.9477e-06
7.71735e-07
-2.39104e-06
7.86051e-07
-2.84334e-06
8.03079e-07
-3.30417e-06
8.19659e-07
-3.77086e-06
8.31694e-07
-4.23834e-06
8.34827e-07
-4.69929e-06
8.24997e-07
-5.14453e-06
7.9878e-07
-5.56345e-06
7.5354e-07
-5.94448e-06
6.87474e-07
-6.27554e-06
5.996e-07
-6.54451e-06
4.89746e-07
-6.73964e-06
3.58545e-07
-6.85006e-06
2.07438e-07
-6.86617e-06
3.86815e-08
-6.78007e-06
-1.44671e-07
-6.58604e-06
-3.3879e-07
-6.28084e-06
-5.39131e-07
-5.86409e-06
-7.40539e-07
-5.3385e-06
-9.37397e-07
-4.71e-06
-1.12382e-06
-3.98772e-06
-1.29388e-06
-3.18393e-06
-1.4419e-06
-2.31365e-06
-1.56268e-06
-1.39434e-06
-1.65186e-06
-4.45219e-07
-1.70606e-06
-1.72342e-06
2.05556e-06
-3.03673e-06
3.34587e-06
-2.93694e-06
4.56677e-06
-2.77596e-06
5.69433e-06
-2.55975e-06
6.70787e-06
-2.29596e-06
7.59052e-06
-1.99364e-06
8.32958e-06
-1.6627e-06
8.91677e-06
-1.31344e-06
9.34816e-06
-9.56137e-07
9.62406e-06
-6.00586e-07
9.74868e-06
-2.5581e-07
9.72972e-06
7.02051e-08
9.57785e-06
3.707e-07
9.30618e-06
6.40246e-07
8.92968e-06
8.74799e-07
8.46453e-06
1.07174e-06
7.92757e-06
1.22986e-06
7.33562e-06
1.34939e-06
6.70485e-06
1.43201e-06
6.05017e-06
1.48089e-06
5.38447e-06
1.50067e-06
4.7181e-06
1.49744e-06
4.05828e-06
1.47839e-06
3.40892e-06
1.4512e-06
2.77079e-06
1.42304e-06
2.14228e-06
1.39938e-06
1.52049e-06
1.38304e-06
9.02471e-07
1.37397e-06
2.86053e-07
1.37015e-06
-3.29981e-07
1.36924e-06
-9.46464e-07
1.3703e-06
-1.56467e-06
1.37442e-06
-2.18684e-06
1.38395e-06
-2.81595e-06
1.40084e-06
-3.45485e-06
1.42495e-06
-4.10502e-06
1.45325e-06
-4.76548e-06
1.48012e-06
-5.43208e-06
1.4983e-06
-6.09737e-06
1.50011e-06
-6.75081e-06
1.47844e-06
-7.37932e-06
1.42729e-06
-7.96791e-06
1.34212e-06
-8.50031e-06
1.21987e-06
-8.95968e-06
1.05897e-06
-9.32924e-06
8.59297e-07
-9.59284e-06
6.22142e-07
-9.73564e-06
3.50236e-07
-9.74468e-06
4.77238e-08
-9.60949e-06
-2.7987e-07
-9.32259e-06
-6.25693e-07
-8.88004e-06
-9.81681e-07
-8.28184e-06
-1.33874e-06
-7.5322e-06
-1.68704e-06
-6.63975e-06
-2.01628e-06
-5.61747e-06
-2.31617e-06
-4.48252e-06
-2.57685e-06
-3.25584e-06
-2.78936e-06
-1.96157e-06
-2.94614e-06
-6.26228e-07
-3.0414e-06
7.22265e-07
-3.07192e-06
2.05559e-06
-3.03673e-06
3.3459e-06
-2.93693e-06
4.56679e-06
-2.77596e-06
5.69435e-06
-2.55974e-06
6.70789e-06
-2.29595e-06
7.59053e-06
-1.99363e-06
8.32959e-06
-1.66269e-06
8.91678e-06
-1.31344e-06
9.34817e-06
-9.5613e-07
9.62407e-06
-6.00579e-07
9.74868e-06
-2.55804e-07
9.72972e-06
7.02113e-08
9.57784e-06
3.70705e-07
9.30617e-06
6.40251e-07
8.92967e-06
8.74803e-07
8.46453e-06
1.07174e-06
7.92756e-06
1.22986e-06
7.33561e-06
1.34939e-06
6.70484e-06
1.43201e-06
6.05016e-06
1.48089e-06
5.38446e-06
1.50067e-06
4.71809e-06
1.49744e-06
4.05827e-06
1.47839e-06
3.40891e-06
1.4512e-06
2.77078e-06
1.42303e-06
2.14227e-06
1.39938e-06
1.52049e-06
1.38304e-06
9.02464e-07
1.37397e-06
2.86046e-07
1.37014e-06
-3.29987e-07
1.36924e-06
-9.4647e-07
1.3703e-06
-1.56468e-06
1.37442e-06
-2.18684e-06
1.38395e-06
-2.81595e-06
1.40084e-06
-3.45485e-06
1.42495e-06
-4.10502e-06
1.45325e-06
-4.76548e-06
1.48012e-06
-5.43209e-06
1.4983e-06
-6.09737e-06
1.50011e-06
-6.75082e-06
1.47844e-06
-7.37933e-06
1.42729e-06
-7.96791e-06
1.34212e-06
-8.50031e-06
1.21988e-06
-8.95969e-06
1.05898e-06
-9.32924e-06
8.59298e-07
-9.59284e-06
6.22143e-07
-9.73564e-06
3.50237e-07
-9.74469e-06
4.77252e-08
-9.6095e-06
-2.79869e-07
-9.3226e-06
-6.25692e-07
-8.88005e-06
-9.81679e-07
-8.28185e-06
-1.33874e-06
-7.53222e-06
-1.68703e-06
-6.63976e-06
-2.01627e-06
-5.61748e-06
-2.31617e-06
-4.48253e-06
-2.57685e-06
-3.25586e-06
-2.78936e-06
-1.96158e-06
-2.94614e-06
-6.2624e-07
-3.0414e-06
7.22254e-07
-3.07192e-06
2.05558e-06
-3.03673e-06
3.34589e-06
-2.93694e-06
4.56678e-06
-2.77596e-06
5.69435e-06
-2.55974e-06
6.70789e-06
-2.29596e-06
7.59053e-06
-1.99364e-06
8.32959e-06
-1.66269e-06
8.91678e-06
-1.31344e-06
9.34817e-06
-9.56133e-07
9.62407e-06
-6.00582e-07
9.74869e-06
-2.55807e-07
9.72972e-06
7.02087e-08
9.57785e-06
3.70703e-07
9.30618e-06
6.40249e-07
8.92968e-06
8.74802e-07
8.46453e-06
1.07174e-06
7.92757e-06
1.22986e-06
7.33562e-06
1.34939e-06
6.70485e-06
1.43201e-06
6.05016e-06
1.48089e-06
5.38447e-06
1.50067e-06
4.7181e-06
1.49744e-06
4.05828e-06
1.47839e-06
3.40892e-06
1.4512e-06
2.77079e-06
1.42304e-06
2.14228e-06
1.39938e-06
1.52049e-06
1.38304e-06
9.02471e-07
1.37397e-06
2.86053e-07
1.37014e-06
-3.2998e-07
1.36924e-06
-9.46463e-07
1.3703e-06
-1.56467e-06
1.37442e-06
-2.18683e-06
1.38395e-06
-2.81594e-06
1.40084e-06
-3.45484e-06
1.42495e-06
-4.10502e-06
1.45325e-06
-4.76547e-06
1.48012e-06
-5.43208e-06
1.4983e-06
-6.09737e-06
1.50011e-06
-6.75081e-06
1.47844e-06
-7.37932e-06
1.42729e-06
-7.9679e-06
1.34212e-06
-8.50031e-06
1.21988e-06
-8.95968e-06
1.05898e-06
-9.32924e-06
8.593e-07
-9.59284e-06
6.22146e-07
-9.73564e-06
3.50241e-07
-9.74469e-06
4.77294e-08
-9.6095e-06
-2.79864e-07
-9.3226e-06
-6.25687e-07
-8.88006e-06
-9.81674e-07
-8.28186e-06
-1.33874e-06
-7.53223e-06
-1.68703e-06
-6.63978e-06
-2.01627e-06
-5.61749e-06
-2.31616e-06
-4.48255e-06
-2.57684e-06
-3.25587e-06
-2.78936e-06
-1.9616e-06
-2.94614e-06
-6.26259e-07
-3.0414e-06
-3.07192e-06
2.65411e-06
-4.75845e-06
4.3215e-06
-4.60432e-06
5.90115e-06
-4.35562e-06
7.3627e-06
-4.0213e-06
8.67975e-06
-3.613e-06
9.83057e-06
-3.14446e-06
1.07986e-05
-2.63076e-06
1.15728e-05
-2.08765e-06
1.21476e-05
-1.53088e-06
1.25226e-05
-9.75552e-07
1.27024e-05
-4.3564e-07
1.26962e-05
7.64023e-08
1.25169e-05
5.49941e-07
1.21808e-05
9.76348e-07
1.17066e-05
1.34909e-06
1.11145e-05
1.66381e-06
1.0426e-05
1.91835e-06
9.6626e-06
2.11277e-06
8.84517e-06
2.24944e-06
7.99302e-06
2.33304e-06
7.12306e-06
2.37063e-06
6.24898e-06
2.37153e-06
5.38053e-06
2.34683e-06
4.52328e-06
2.30845e-06
3.67878e-06
2.26754e-06
2.84547e-06
2.23269e-06
2.02008e-06
2.20843e-06
1.19914e-06
2.19491e-06
3.80107e-07
2.18918e-06
-4.38478e-07
2.18782e-06
-1.25759e-06
2.18941e-06
-2.07875e-06
2.19557e-06
-2.90459e-06
2.20979e-06
-3.7386e-06
2.23486e-06
-4.58399e-06
2.27034e-06
-5.44214e-06
2.3114e-06
-6.31122e-06
2.3492e-06
-7.18539e-06
2.37247e-06
-8.05458e-06
2.3693e-06
-8.90486e-06
2.32871e-06
-9.7191e-06
2.24153e-06
-1.04779e-05
2.10087e-06
-1.11602e-05
1.90221e-06
-1.17446e-05
1.64335e-06
-1.22097e-05
1.32439e-06
-1.25352e-05
9.4765e-07
-1.27026e-05
5.17637e-07
-1.26959e-05
4.10397e-08
-1.25024e-05
-4.73368e-07
-1.21133e-05
-1.01481e-06
-1.15242e-05
-1.57073e-06
-1.07359e-05
-2.12704e-06
-9.75439e-06
-2.66857e-06
-8.5911e-06
-3.17957e-06
-7.26297e-06
-3.6443e-06
-5.79206e-06
-4.04775e-06
-4.20511e-06
-4.37632e-06
-2.53271e-06
-4.61854e-06
-8.08445e-07
-4.76566e-06
9.32434e-07
-4.81279e-06
2.65415e-06
-4.75845e-06
4.32154e-06
-4.60432e-06
5.90119e-06
-4.35561e-06
7.36273e-06
-4.02129e-06
8.67978e-06
-3.61299e-06
9.83059e-06
-3.14445e-06
1.07986e-05
-2.63075e-06
1.15729e-05
-2.08764e-06
1.21476e-05
-1.53087e-06
1.25226e-05
-9.75541e-07
1.27024e-05
-4.35629e-07
1.26962e-05
7.6412e-08
1.25169e-05
5.4995e-07
1.21808e-05
9.76355e-07
1.17065e-05
1.3491e-06
1.11145e-05
1.66381e-06
1.0426e-05
1.91835e-06
9.66259e-06
2.11278e-06
8.84516e-06
2.24944e-06
7.99301e-06
2.33304e-06
7.12305e-06
2.37063e-06
6.24896e-06
2.37153e-06
5.38052e-06
2.34683e-06
4.52327e-06
2.30845e-06
3.67877e-06
2.26753e-06
2.84546e-06
2.23269e-06
2.02007e-06
2.20843e-06
1.19913e-06
2.19491e-06
3.80098e-07
2.18918e-06
-4.38487e-07
2.18782e-06
-1.2576e-06
2.18941e-06
-2.07876e-06
2.19557e-06
-2.90459e-06
2.20979e-06
-3.73861e-06
2.23486e-06
-4.584e-06
2.27034e-06
-5.44214e-06
2.3114e-06
-6.31123e-06
2.3492e-06
-7.1854e-06
2.37247e-06
-8.05459e-06
2.3693e-06
-8.90486e-06
2.32871e-06
-9.71911e-06
2.24154e-06
-1.04779e-05
2.10087e-06
-1.11602e-05
1.90221e-06
-1.17446e-05
1.64335e-06
-1.22097e-05
1.32439e-06
-1.25352e-05
9.47652e-07
-1.27026e-05
5.17639e-07
-1.26959e-05
4.10419e-08
-1.25024e-05
-4.73365e-07
-1.21133e-05
-1.01481e-06
-1.15242e-05
-1.57072e-06
-1.07359e-05
-2.12703e-06
-9.75441e-06
-2.66857e-06
-8.59112e-06
-3.17956e-06
-7.26298e-06
-3.6443e-06
-5.79208e-06
-4.04775e-06
-4.20512e-06
-4.37632e-06
-2.53272e-06
-4.61854e-06
-8.08461e-07
-4.76566e-06
9.32419e-07
-4.8128e-06
2.65414e-06
-4.75845e-06
4.32152e-06
-4.60432e-06
5.90117e-06
-4.35561e-06
7.36272e-06
-4.02129e-06
8.67977e-06
-3.613e-06
9.83059e-06
-3.14445e-06
1.07986e-05
-2.63075e-06
1.15729e-05
-2.08765e-06
1.21476e-05
-1.53088e-06
1.25226e-05
-9.75546e-07
1.27024e-05
-4.35634e-07
1.26962e-05
7.64079e-08
1.25169e-05
5.49946e-07
1.21808e-05
9.76352e-07
1.17066e-05
1.34909e-06
1.11145e-05
1.66381e-06
1.0426e-05
1.91835e-06
9.6626e-06
2.11278e-06
8.84517e-06
2.24944e-06
7.99302e-06
2.33304e-06
7.12306e-06
2.37063e-06
6.24897e-06
2.37153e-06
5.38053e-06
2.34683e-06
4.52328e-06
2.30845e-06
3.67878e-06
2.26753e-06
2.84547e-06
2.23269e-06
2.02008e-06
2.20843e-06
1.19914e-06
2.19491e-06
3.80107e-07
2.18918e-06
-4.38477e-07
2.18782e-06
-1.25759e-06
2.18941e-06
-2.07875e-06
2.19557e-06
-2.90458e-06
2.20979e-06
-3.7386e-06
2.23486e-06
-4.58399e-06
2.27034e-06
-5.44213e-06
2.3114e-06
-6.31122e-06
2.3492e-06
-7.18539e-06
2.37247e-06
-8.05458e-06
2.3693e-06
-8.90485e-06
2.32871e-06
-9.7191e-06
2.24154e-06
-1.04778e-05
2.10088e-06
-1.11602e-05
1.90221e-06
-1.17446e-05
1.64335e-06
-1.22097e-05
1.3244e-06
-1.25352e-05
9.47657e-07
-1.27026e-05
5.17645e-07
-1.26959e-05
4.10485e-08
-1.25024e-05
-4.73358e-07
-1.21133e-05
-1.0148e-06
-1.15242e-05
-1.57072e-06
-1.07359e-05
-2.12703e-06
-9.75442e-06
-2.66856e-06
-8.59113e-06
-3.17956e-06
-7.263e-06
-3.64429e-06
-5.7921e-06
-4.04774e-06
-4.20514e-06
-4.37631e-06
-2.53275e-06
-4.61854e-06
-8.08485e-07
-4.76566e-06
-4.8128e-06
3.25467e-06
-6.86993e-06
5.30104e-06
-6.65069e-06
7.24221e-06
-6.29679e-06
9.0416e-06
-5.82069e-06
1.06672e-05
-5.23863e-06
1.20926e-05
-4.5698e-06
1.32972e-05
-3.83535e-06
1.4267e-05
-3.05744e-06
1.49944e-05
-2.25828e-06
1.54781e-05
-1.4593e-06
1.57229e-05
-6.80423e-07
1.57388e-05
6.0463e-08
1.55408e-05
7.47964e-07
1.51477e-05
1.36945e-06
1.45816e-05
1.91522e-06
1.38667e-05
2.37862e-06
1.3029e-05
2.75612e-06
1.20944e-05
3.0474e-06
1.10884e-05
3.25542e-06
1.00349e-05
3.38656e-06
8.95482e-06
3.45067e-06
7.86548e-06
3.46086e-06
6.77941e-06
3.43291e-06
5.70406e-06
3.3838e-06
4.64203e-06
3.32957e-06
3.59208e-06
3.28264e-06
2.5508e-06
3.24971e-06
1.51441e-06
3.23131e-06
4.80067e-07
3.22352e-06
-5.53789e-07
3.22168e-06
-1.58821e-06
3.22384e-06
-2.62485e-06
3.23221e-06
-3.66662e-06
3.25156e-06
-4.71733e-06
3.28557e-06
-5.78031e-06
3.33332e-06
-6.85657e-06
3.38766e-06
-7.94319e-06
3.43582e-06
-9.03234e-06
3.46162e-06
-1.01111e-05
3.44808e-06
-1.1162e-05
3.37959e-06
-1.21637e-05
3.24324e-06
-1.30923e-05
3.02945e-06
-1.39221e-05
2.73208e-06
-1.46272e-05
2.3484e-06
-1.51818e-05
1.87897e-06
-1.55617e-05
1.32754e-06
-1.5745e-05
7.00982e-07
-1.57132e-05
9.21778e-09
-1.54516e-05
-7.34922e-07
-1.49506e-05
-1.51585e-06
-1.42058e-05
-2.31553e-06
-1.32189e-05
-3.1139e-06
-1.1998e-05
-3.88945e-06
-1.05577e-05
-4.61995e-06
-8.91868e-06
-5.28327e-06
-7.10805e-06
-5.85838e-06
-5.15811e-06
-6.32626e-06
-3.10574e-06
-6.67092e-06
-9.91205e-07
-6.88019e-06
1.14323e-06
-6.94723e-06
3.25471e-06
-6.86993e-06
5.30108e-06
-6.65068e-06
7.24225e-06
-6.29678e-06
9.04164e-06
-5.82068e-06
1.06673e-05
-5.23862e-06
1.20926e-05
-4.56979e-06
1.32972e-05
-3.83534e-06
1.4267e-05
-3.05742e-06
1.49944e-05
-2.25826e-06
1.54781e-05
-1.45928e-06
1.57229e-05
-6.80407e-07
1.57388e-05
6.04772e-08
1.55408e-05
7.47977e-07
1.51477e-05
1.36947e-06
1.45815e-05
1.91523e-06
1.38667e-05
2.37863e-06
1.3029e-05
2.75612e-06
1.20943e-05
3.0474e-06
1.10884e-05
3.25542e-06
1.00348e-05
3.38657e-06
8.9548e-06
3.45067e-06
7.86547e-06
3.46086e-06
6.7794e-06
3.43291e-06
5.70404e-06
3.3838e-06
4.64201e-06
3.32956e-06
3.59207e-06
3.28263e-06
2.55079e-06
3.24971e-06
1.51439e-06
3.23131e-06
4.80055e-07
3.22352e-06
-5.538e-07
3.22168e-06
-1.58822e-06
3.22383e-06
-2.62486e-06
3.23221e-06
-3.66663e-06
3.25156e-06
-4.71734e-06
3.28557e-06
-5.78032e-06
3.33332e-06
-6.85658e-06
3.38766e-06
-7.9432e-06
3.43582e-06
-9.03235e-06
3.46162e-06
-1.01111e-05
3.44808e-06
-1.1162e-05
3.37959e-06
-1.21637e-05
3.24325e-06
-1.30923e-05
3.02945e-06
-1.39222e-05
2.73208e-06
-1.46272e-05
2.3484e-06
-1.51818e-05
1.87897e-06
-1.55617e-05
1.32754e-06
-1.5745e-05
7.00985e-07
-1.57132e-05
9.22089e-09
-1.54516e-05
-7.34919e-07
-1.49506e-05
-1.51585e-06
-1.42058e-05
-2.31553e-06
-1.32189e-05
-3.1139e-06
-1.19981e-05
-3.88945e-06
-1.05577e-05
-4.61995e-06
-8.9187e-06
-5.28327e-06
-7.10807e-06
-5.85838e-06
-5.15813e-06
-6.32626e-06
-3.10575e-06
-6.67092e-06
-9.91224e-07
-6.88019e-06
1.14321e-06
-6.94723e-06
3.2547e-06
-6.86993e-06
5.30106e-06
-6.65069e-06
7.24224e-06
-6.29678e-06
9.04163e-06
-5.82068e-06
1.06673e-05
-5.23863e-06
1.20926e-05
-4.56979e-06
1.32972e-05
-3.83534e-06
1.4267e-05
-3.05743e-06
1.49944e-05
-2.25827e-06
1.54781e-05
-1.45929e-06
1.57229e-05
-6.80414e-07
1.57388e-05
6.04711e-08
1.55408e-05
7.47972e-07
1.51477e-05
1.36946e-06
1.45816e-05
1.91523e-06
1.38667e-05
2.37862e-06
1.3029e-05
2.75612e-06
1.20944e-05
3.0474e-06
1.10884e-05
3.25542e-06
1.00348e-05
3.38657e-06
8.95481e-06
3.45067e-06
7.86548e-06
3.46086e-06
6.77941e-06
3.43291e-06
5.70406e-06
3.3838e-06
4.64202e-06
3.32956e-06
3.59208e-06
3.28263e-06
2.5508e-06
3.24971e-06
1.5144e-06
3.23131e-06
4.80067e-07
3.22352e-06
-5.53788e-07
3.22168e-06
-1.58821e-06
3.22383e-06
-2.62484e-06
3.23221e-06
-3.66661e-06
3.25156e-06
-4.71732e-06
3.28557e-06
-5.7803e-06
3.33332e-06
-6.85657e-06
3.38766e-06
-7.94318e-06
3.43582e-06
-9.03233e-06
3.46162e-06
-1.01111e-05
3.44808e-06
-1.1162e-05
3.37959e-06
-1.21637e-05
3.24325e-06
-1.30923e-05
3.02945e-06
-1.39221e-05
2.73208e-06
-1.46272e-05
2.34841e-06
-1.51818e-05
1.87898e-06
-1.55617e-05
1.32755e-06
-1.5745e-05
7.00993e-07
-1.57132e-05
9.23047e-09
-1.54516e-05
-7.34908e-07
-1.49506e-05
-1.51584e-06
-1.42058e-05
-2.31552e-06
-1.3219e-05
-3.11389e-06
-1.19981e-05
-3.88944e-06
-1.05577e-05
-4.61994e-06
-8.91872e-06
-5.28326e-06
-7.1081e-06
-5.85837e-06
-5.15816e-06
-6.32625e-06
-3.10578e-06
-6.67091e-06
-9.91255e-07
-6.88019e-06
-6.94723e-06
3.85508e-06
-9.37116e-06
6.28102e-06
-9.07664e-06
8.58526e-06
-8.60103e-06
1.07253e-05
-7.96069e-06
1.26636e-05
-7.17702e-06
1.43691e-05
-6.2753e-06
1.58173e-05
-5.28353e-06
1.6991e-05
-4.23111e-06
1.78804e-05
-3.14764e-06
1.84828e-05
-2.06178e-06
1.88028e-05
-1.00039e-06
1.88509e-05
1.23351e-08
1.86436e-05
9.55333e-07
1.82019e-05
1.81117e-06
1.75509e-05
2.56622e-06
1.67186e-05
3.21092e-06
1.57348e-05
3.73991e-06
1.463e-05
4.15213e-06
1.34344e-05
4.45102e-06
1.21763e-05
4.64471e-06
1.08808e-05
4.7461e-06
9.56907e-06
4.77264e-06
8.25653e-06
4.74545e-06
6.95286e-06
4.68746e-06
5.66203e-06
4.6204e-06
4.38339e-06
4.56127e-06
3.11364e-06
4.51947e-06
1.84886e-06
4.49608e-06
5.86129e-07
4.48625e-06
-6.7614e-07
4.48395e-06
-1.93895e-06
4.48665e-06
-3.20397e-06
4.49723e-06
-4.47423e-06
4.52182e-06
-5.75365e-06
4.56499e-06
-7.04542e-06
4.6251e-06
-8.34992e-06
4.69216e-06
-9.66281e-06
4.74871e-06
-1.0974e-05
4.77282e-06
-1.22675e-05
4.74161e-06
-1.35221e-05
4.63416e-06
-1.47122e-05
4.43334e-06
-1.58093e-05
4.12657e-06
-1.67833e-05
3.70608e-06
-1.76037e-05
3.16875e-06
-1.82406e-05
2.51594e-06
-1.86664e-05
1.75333e-06
-1.88562e-05
8.90776e-07
-1.87892e-05
-5.78216e-08
-1.84494e-05
-1.07476e-06
-1.78265e-05
-2.13874e-06
-1.69167e-05
-3.22534e-06
-1.5723e-05
-4.30757e-06
-1.42558e-05
-5.35665e-06
-1.25328e-05
-6.34295e-06
-1.05789e-05
-7.23715e-06
-8.42589e-06
-8.0114e-06
-6.1115e-06
-8.64064e-06
-3.67861e-06
-9.10381e-06
-1.17386e-06
-9.38494e-06
1.35391e-06
-9.47499e-06
3.85513e-06
-9.37116e-06
6.28108e-06
-9.07663e-06
8.58531e-06
-8.60101e-06
1.07253e-05
-7.96068e-06
1.26637e-05
-7.177e-06
1.43692e-05
-6.27528e-06
1.58174e-05
-5.28351e-06
1.6991e-05
-4.23109e-06
1.78804e-05
-3.14761e-06
1.84829e-05
-2.06176e-06
1.88028e-05
-1.00036e-06
1.88509e-05
1.23545e-08
1.86436e-05
9.55351e-07
1.82018e-05
1.81118e-06
1.75508e-05
2.56623e-06
1.67185e-05
3.21093e-06
1.57347e-05
3.73992e-06
1.463e-05
4.15214e-06
1.34344e-05
4.45103e-06
1.21763e-05
4.64471e-06
1.08808e-05
4.7461e-06
9.56905e-06
4.77263e-06
8.25651e-06
4.74545e-06
6.95285e-06
4.68746e-06
5.66201e-06
4.6204e-06
4.38338e-06
4.56127e-06
3.11362e-06
4.51947e-06
1.84884e-06
4.49608e-06
5.86115e-07
4.48625e-06
-6.76153e-07
4.48394e-06
-1.93896e-06
4.48664e-06
-3.20398e-06
4.49723e-06
-4.47424e-06
4.52182e-06
-5.75366e-06
4.56499e-06
-7.04544e-06
4.6251e-06
-8.34993e-06
4.69216e-06
-9.66282e-06
4.74871e-06
-1.0974e-05
4.77282e-06
-1.22675e-05
4.74161e-06
-1.35221e-05
4.63416e-06
-1.47122e-05
4.43334e-06
-1.58093e-05
4.12657e-06