/*--------------------------------*- C++ -*----------------------------------*\
| =========                 |                                                 |
| \\      /  F ield         | OpenFOAM: The Open Source CFD Toolbox           |
|  \\    /   O peration     | Version:  2112                                  |
|   \\  /    A nd           | Website:  www.openfoam.com                      |
|    \\/     M anipulation  |                                                 |
\*---------------------------------------------------------------------------*/
FoamFile
{
    version     2.0;
    format      ascii;
    arch        "LSB;label=32;scalar=64";
    class       volVectorField;
    location    "20000";
    object      U;
}
// * * * * * * * * * * * * * * * * * * * * * * * * * * * * * * * * * * * * * //

dimensions      [0 1 -1 0 0 0 0];

internalField   nonuniform List<vector> 
16200
(
(0.000175576 -4.50795e-06 0)
(0.000341155 -4.34461e-06 0)
(0.000499136 -4.08131e-06 0)
(0.000646146 -3.72982e-06 0)
(0.000779241 -3.30394e-06 0)
(0.000895993 -2.82025e-06 0)
(0.000994552 -2.29635e-06 0)
(0.00107369 -1.7503e-06 0)
(0.00113277 -1.19956e-06 0)
(0.00117179 -6.60354e-07 0)
(0.00119125 -1.4703e-07 0)
(0.00119217 3.28234e-07 0)
(0.00117595 7.55849e-07 0)
(0.00114434 1.12865e-06 0)
(0.0010993 1.44198e-06 0)
(0.00104299 1.69364e-06 0)
(0.00097761 1.88366e-06 0)
(0.000905371 2.01425e-06 0)
(0.000828397 2.08967e-06 0)
(0.000748651 2.1162e-06 0)
(0.000667852 2.1022e-06 0)
(0.000587396 2.05798e-06 0)
(0.000508289 1.9954e-06 0)
(0.000431093 1.92692e-06 0)
(0.000355934 1.86396e-06 0)
(0.000282564 1.81481e-06 0)
(0.000210503 1.78289e-06 0)
(0.00013922 1.76648e-06 0)
(6.82924e-05 1.76029e-06 0)
(-2.5239e-06 1.75902e-06 0)
(-7.33435e-05 1.76052e-06 0)
(-0.000144286 1.76724e-06 0)
(-0.000215609 1.78461e-06 0)
(-0.000287746 1.81776e-06 0)
(-0.00036123 1.86807e-06 0)
(-0.00043653 1.93176e-06 0)
(-0.000513871 2.00022e-06 0)
(-0.000593099 2.0619e-06 0)
(-0.000673618 2.10435e-06 0)
(-0.000754393 2.11577e-06 0)
(-0.000834002 2.08601e-06 0)
(-0.000910706 2.00684e-06 0)
(-0.000982528 1.87213e-06 0)
(-0.00104734 1.67775e-06 0)
(-0.00110292 1.42167e-06 0)
(-0.00114707 1.10399e-06 0)
(-0.00117765 7.27097e-07 0)
(-0.0011927 2.9581e-07 0)
(-0.0011905 -1.82517e-07 0)
(-0.00116967 -6.98119e-07 0)
(-0.00112923 -1.23865e-06 0)
(-0.0010687 -1.78961e-06 0)
(-0.000988157 -2.33467e-06 0)
(-0.000888251 -2.85631e-06 0)
(-0.000770266 -3.33644e-06 0)
(-0.00063609 -3.75755e-06 0)
(-0.000488195 -4.10314e-06 0)
(-0.000329555 -4.35973e-06 0)
(-0.000163572 -4.51556e-06 0)
(6.07153e-06 -4.5655e-06 0)
(0.00017558 -4.50796e-06 0)
(0.000341159 -4.3446e-06 0)
(0.00049914 -4.0813e-06 0)
(0.000646149 -3.72981e-06 0)
(0.000779244 -3.30393e-06 0)
(0.000895995 -2.82024e-06 0)
(0.000994554 -2.29634e-06 0)
(0.00107369 -1.75029e-06 0)
(0.00113277 -1.19955e-06 0)
(0.00117179 -6.60343e-07 0)
(0.00119126 -1.4702e-07 0)
(0.00119217 3.28243e-07 0)
(0.00117595 7.55857e-07 0)
(0.00114434 1.12865e-06 0)
(0.0010993 1.44198e-06 0)
(0.00104299 1.69364e-06 0)
(0.000977609 1.88367e-06 0)
(0.000905369 2.01426e-06 0)
(0.000828396 2.08967e-06 0)
(0.00074865 2.1162e-06 0)
(0.00066785 2.1022e-06 0)
(0.000587395 2.05798e-06 0)
(0.000508288 1.9954e-06 0)
(0.000431092 1.92692e-06 0)
(0.000355933 1.86396e-06 0)
(0.000282563 1.81481e-06 0)
(0.000210502 1.78289e-06 0)
(0.000139219 1.76647e-06 0)
(6.82916e-05 1.76029e-06 0)
(-2.52467e-06 1.75902e-06 0)
(-7.33442e-05 1.76052e-06 0)
(-0.000144287 1.76723e-06 0)
(-0.00021561 1.78461e-06 0)
(-0.000287746 1.81775e-06 0)
(-0.00036123 1.86807e-06 0)
(-0.00043653 1.93176e-06 0)
(-0.000513871 2.00022e-06 0)
(-0.0005931 2.0619e-06 0)
(-0.000673618 2.10435e-06 0)
(-0.000754394 2.11577e-06 0)
(-0.000834003 2.08601e-06 0)
(-0.000910706 2.00684e-06 0)
(-0.000982529 1.87213e-06 0)
(-0.00104734 1.67775e-06 0)
(-0.00110292 1.42167e-06 0)
(-0.00114707 1.10399e-06 0)
(-0.00117765 7.27099e-07 0)
(-0.0011927 2.95812e-07 0)
(-0.0011905 -1.82515e-07 0)
(-0.00116967 -6.98116e-07 0)
(-0.00112923 -1.23865e-06 0)
(-0.0010687 -1.78961e-06 0)
(-0.000988158 -2.33467e-06 0)
(-0.000888253 -2.85631e-06 0)
(-0.000770267 -3.33644e-06 0)
(-0.000636092 -3.75755e-06 0)
(-0.000488197 -4.10314e-06 0)
(-0.000329557 -4.35973e-06 0)
(-0.000163573 -4.51556e-06 0)
(6.07006e-06 -4.5655e-06 0)
(0.000175578 -4.50796e-06 0)
(0.000341157 -4.34461e-06 0)
(0.000499139 -4.0813e-06 0)
(0.000646148 -3.72981e-06 0)
(0.000779243 -3.30394e-06 0)
(0.000895994 -2.82025e-06 0)
(0.000994554 -2.29634e-06 0)
(0.00107369 -1.75029e-06 0)
(0.00113277 -1.19956e-06 0)
(0.00117179 -6.60348e-07 0)
(0.00119126 -1.47024e-07 0)
(0.00119217 3.2824e-07 0)
(0.00117596 7.55854e-07 0)
(0.00114434 1.12865e-06 0)
(0.0010993 1.44198e-06 0)
(0.00104299 1.69364e-06 0)
(0.00097761 1.88367e-06 0)
(0.00090537 2.01426e-06 0)
(0.000828397 2.08967e-06 0)
(0.000748651 2.1162e-06 0)
(0.000667851 2.1022e-06 0)
(0.000587396 2.05798e-06 0)
(0.000508288 1.9954e-06 0)
(0.000431093 1.92692e-06 0)
(0.000355934 1.86396e-06 0)
(0.000282564 1.81481e-06 0)
(0.000210503 1.78289e-06 0)
(0.00013922 1.76647e-06 0)
(6.82924e-05 1.76029e-06 0)
(-2.52385e-06 1.75902e-06 0)
(-7.33434e-05 1.76052e-06 0)
(-0.000144286 1.76723e-06 0)
(-0.000215609 1.78461e-06 0)
(-0.000287745 1.81775e-06 0)
(-0.000361229 1.86807e-06 0)
(-0.000436529 1.93175e-06 0)
(-0.00051387 2.00022e-06 0)
(-0.000593098 2.0619e-06 0)
(-0.000673617 2.10435e-06 0)
(-0.000754393 2.11577e-06 0)
(-0.000834002 2.08601e-06 0)
(-0.000910705 2.00684e-06 0)
(-0.000982528 1.87213e-06 0)
(-0.00104734 1.67776e-06 0)
(-0.00110292 1.42167e-06 0)
(-0.00114707 1.104e-06 0)
(-0.00117765 7.27104e-07 0)
(-0.0011927 2.95818e-07 0)
(-0.0011905 -1.82508e-07 0)
(-0.00116967 -6.98109e-07 0)
(-0.00112923 -1.23864e-06 0)
(-0.00106871 -1.7896e-06 0)
(-0.000988159 -2.33466e-06 0)
(-0.000888254 -2.8563e-06 0)
(-0.000770269 -3.33643e-06 0)
(-0.000636094 -3.75754e-06 0)
(-0.000488199 -4.10314e-06 0)
(-0.000329559 -4.35972e-06 0)
(-0.000163576 -4.51556e-06 0)
(6.06763e-06 -4.5655e-06 0)
(0.000510443 -5.97754e-05 0)
(0.000992081 -5.77248e-05 0)
(0.00145213 -5.44197e-05 0)
(0.00188097 -4.99911e-05 0)
(0.00227018 -4.46051e-05 0)
(0.00261274 -3.84565e-05 0)
(0.00290326 -3.17571e-05 0)
(0.00313805 -2.47254e-05 0)
(0.00331516 -1.75762e-05 0)
(0.0034343 -1.05118e-05 0)
(0.00349676 -3.71569e-06 0)
(0.00350518 2.65324e-06 0)
(0.00346342 8.464e-06 0)
(0.00337629 1.36148e-05 0)
(0.00324935 1.80336e-05 0)
(0.00308865 2.16784e-05 0)
(0.0029005 2.4536e-05 0)
(0.00269124 2.66215e-05 0)
(0.00246702 2.79782e-05 0)
(0.00223356 2.86778e-05 0)
(0.0019959 2.88204e-05 0)
(0.0017582 2.85329e-05 0)
(0.00152349 2.79637e-05 0)
(0.00129356 2.72694e-05 0)
(0.00106892 2.65949e-05 0)
(0.00084905 2.60481e-05 0)
(0.000632714 2.568e-05 0)
(0.000418511 2.54809e-05 0)
(0.000205301 2.53995e-05 0)
(-7.58768e-06 2.53808e-05 0)
(-0.000220486 2.54027e-05 0)
(-0.000433739 2.54905e-05 0)
(-0.000648052 2.57003e-05 0)
(-0.000864593 2.60815e-05 0)
(-0.00108477 2.66398e-05 0)
(-0.00130978 2.73199e-05 0)
(-0.00154009 2.80104e-05 0)
(-0.00177509 2.85648e-05 0)
(-0.0020129 2.88263e-05 0)
(-0.00225041 2.86479e-05 0)
(-0.00248339 2.79044e-05 0)
(-0.00270674 2.64977e-05 0)
(-0.0029147 2.43582e-05 0)
(-0.00310111 2.14447e-05 0)
(-0.00325961 1.77439e-05 0)
(-0.0033839 1.3271e-05 0)
(-0.00346797 8.07039e-06 0)
(-0.0035063 2.21606e-06 0)
(-0.00349414 -4.18805e-06 0)
(-0.00342771 -1.10089e-05 0)
(-0.00330446 -1.80856e-05 0)
(-0.00312321 -2.52334e-05 0)
(-0.00288435 -3.22486e-05 0)
(-0.00258998 -3.89159e-05 0)
(-0.00224389 -4.5017e-05 0)
(-0.00185161 -5.0341e-05 0)
(-0.00142025 -5.46944e-05 0)
(-0.000958325 -5.79141e-05 0)
(-0.000475539 -5.98713e-05 0)
(1.76501e-05 -6.04984e-05 0)
(0.000510454 -5.97754e-05 0)
(0.000992092 -5.77248e-05 0)
(0.00145214 -5.44196e-05 0)
(0.00188098 -4.9991e-05 0)
(0.00227019 -4.46049e-05 0)
(0.00261274 -3.84563e-05 0)
(0.00290326 -3.1757e-05 0)
(0.00313805 -2.47253e-05 0)
(0.00331516 -1.7576e-05 0)
(0.00343431 -1.05117e-05 0)
(0.00349676 -3.71555e-06 0)
(0.00350518 2.65337e-06 0)
(0.00346341 8.46411e-06 0)
(0.00337629 1.36149e-05 0)
(0.00324935 1.80337e-05 0)
(0.00308865 2.16785e-05 0)
(0.0029005 2.4536e-05 0)
(0.00269124 2.66215e-05 0)
(0.00246702 2.79782e-05 0)
(0.00223356 2.86778e-05 0)
(0.0019959 2.88204e-05 0)
(0.0017582 2.85329e-05 0)
(0.00152349 2.79636e-05 0)
(0.00129355 2.72694e-05 0)
(0.00106892 2.65948e-05 0)
(0.000849047 2.60481e-05 0)
(0.000632711 2.568e-05 0)
(0.000418509 2.54809e-05 0)
(0.000205299 2.53994e-05 0)
(-7.58999e-06 2.53808e-05 0)
(-0.000220489 2.54027e-05 0)
(-0.000433741 2.54905e-05 0)
(-0.000648054 2.57003e-05 0)
(-0.000864595 2.60815e-05 0)
(-0.00108477 2.66398e-05 0)
(-0.00130978 2.73199e-05 0)
(-0.00154009 2.80104e-05 0)
(-0.00177509 2.85648e-05 0)
(-0.0020129 2.88263e-05 0)
(-0.00225041 2.86479e-05 0)
(-0.00248339 2.79044e-05 0)
(-0.00270674 2.64977e-05 0)
(-0.0029147 2.43582e-05 0)
(-0.00310111 2.14447e-05 0)
(-0.00325961 1.77439e-05 0)
(-0.0033839 1.3271e-05 0)
(-0.00346797 8.07041e-06 0)
(-0.0035063 2.21609e-06 0)
(-0.00349414 -4.18802e-06 0)
(-0.00342772 -1.10089e-05 0)
(-0.00330446 -1.80856e-05 0)
(-0.00312321 -2.52334e-05 0)
(-0.00288436 -3.22486e-05 0)
(-0.00258998 -3.89159e-05 0)
(-0.0022439 -4.5017e-05 0)
(-0.00185161 -5.03409e-05 0)
(-0.00142025 -5.46944e-05 0)
(-0.00095833 -5.79141e-05 0)
(-0.000475543 -5.98713e-05 0)
(1.76458e-05 -6.04984e-05 0)
(0.00051045 -5.97754e-05 0)
(0.000992088 -5.77248e-05 0)
(0.00145214 -5.44196e-05 0)
(0.00188098 -4.99911e-05 0)
(0.00227018 -4.4605e-05 0)
(0.00261274 -3.84564e-05 0)
(0.00290326 -3.1757e-05 0)
(0.00313805 -2.47253e-05 0)
(0.00331516 -1.75761e-05 0)
(0.00343431 -1.05117e-05 0)
(0.00349676 -3.71561e-06 0)
(0.00350518 2.65331e-06 0)
(0.00346342 8.46406e-06 0)
(0.00337629 1.36148e-05 0)
(0.00324935 1.80337e-05 0)
(0.00308865 2.16785e-05 0)
(0.0029005 2.4536e-05 0)
(0.00269124 2.66215e-05 0)
(0.00246702 2.79782e-05 0)
(0.00223356 2.86778e-05 0)
(0.0019959 2.88204e-05 0)
(0.0017582 2.85329e-05 0)
(0.00152349 2.79636e-05 0)
(0.00129356 2.72694e-05 0)
(0.00106892 2.65948e-05 0)
(0.000849049 2.60481e-05 0)
(0.000632714 2.568e-05 0)
(0.000418511 2.54809e-05 0)
(0.000205301 2.53994e-05 0)
(-7.58753e-06 2.53808e-05 0)
(-0.000220486 2.54027e-05 0)
(-0.000433739 2.54905e-05 0)
(-0.000648051 2.57003e-05 0)
(-0.000864592 2.60815e-05 0)
(-0.00108477 2.66398e-05 0)
(-0.00130978 2.73199e-05 0)
(-0.00154009 2.80104e-05 0)
(-0.00177508 2.85648e-05 0)
(-0.0020129 2.88263e-05 0)
(-0.00225041 2.86479e-05 0)
(-0.00248339 2.79044e-05 0)
(-0.00270674 2.64977e-05 0)
(-0.0029147 2.43583e-05 0)
(-0.00310111 2.14447e-05 0)
(-0.00325961 1.77439e-05 0)
(-0.0033839 1.32711e-05 0)
(-0.00346797 8.07049e-06 0)
(-0.0035063 2.21617e-06 0)
(-0.00349414 -4.18793e-06 0)
(-0.00342772 -1.10088e-05 0)
(-0.00330446 -1.80855e-05 0)
(-0.00312321 -2.52333e-05 0)
(-0.00288436 -3.22485e-05 0)
(-0.00258999 -3.89158e-05 0)
(-0.0022439 -4.50169e-05 0)
(-0.00185162 -5.03409e-05 0)
(-0.00142026 -5.46944e-05 0)
(-0.000958336 -5.79141e-05 0)
(-0.00047555 -5.98713e-05 0)
(1.76388e-05 -6.04984e-05 0)
(0.000832615 -0.0001711 0)
(0.00161861 -0.000165339 0)
(0.00237008 -0.000156051 0)
(0.00307162 -0.000143592 0)
(0.00370965 -0.000128419 0)
(0.00427281 -0.000111068 0)
(0.00475228 -9.21245e-05 0)
(0.00514191 -7.21934e-05 0)
(0.00543829 -5.18739e-05 0)
(0.00564067 -3.17338e-05 0)
(0.0057508 -1.22907e-05 0)
(0.00577264 6.00235e-06 0)
(0.00571213 2.27675e-05 0)
(0.00557679 3.77068e-05 0)
(0.00537538 5.06047e-05 0)
(0.00511752 6.13285e-05 0)
(0.00481335 6.98274e-05 0)
(0.0044731 7.61316e-05 0)
(0.00410676 8.03524e-05 0)
(0.00372366 8.26832e-05 0)
(0.00333213 8.34005e-05 0)
(0.00293906 8.28583e-05 0)
(0.00254956 8.14728e-05 0)
(0.00216675 7.96852e-05 0)
(0.00179172 7.7905e-05 0)
(0.00142384 7.64404e-05 0)
(0.00106134 7.54428e-05 0)
(0.000702116 7.48958e-05 0)
(0.000344439 7.46679e-05 0)
(-1.27305e-05 7.46146e-05 0)
(-0.000369916 7.4677e-05 0)
(-0.00072766 7.49224e-05 0)
(-0.00108705 7.54981e-05 0)
(-0.00144987 7.65304e-05 0)
(-0.00181821 7.80247e-05 0)
(-0.00219379 7.98173e-05 0)
(-0.00257714 8.15906e-05 0)
(-0.00296703 8.29306e-05 0)
(-0.00336018 8.33962e-05 0)
(-0.00375136 8.25747e-05 0)
(-0.00413355 8.01172e-05 0)
(-0.00449836 7.57532e-05 0)
(-0.00483637 6.92951e-05 0)
(-0.00513758 6.06375e-05 0)
(-0.00539174 4.97559e-05 0)
(-0.00558875 3.6707e-05 0)
(-0.00571904 2.16291e-05 0)
(-0.0057739 4.74413e-06 0)
(-0.00574594 -1.36445e-05 0)
(-0.00562934 -3.31532e-05 0)
(-0.00542028 -5.3324e-05 0)
(-0.00511719 -7.36351e-05 0)
(-0.00472101 -9.35159e-05 0)
(-0.00423534 -0.000112366 0)
(-0.00366651 -0.000129581 0)
(-0.00302354 -0.000144577 0)
(-0.00231797 -0.000156823 0)
(-0.0015635 -0.00016587 0)
(-0.000775673 -0.000171369 0)
(2.87883e-05 -0.000173131 0)
(0.000832633 -0.000171099 0)
(0.00161863 -0.000165339 0)
(0.0023701 -0.000156051 0)
(0.00307164 -0.000143592 0)
(0.00370966 -0.000128419 0)
(0.00427282 -0.000111068 0)
(0.00475229 -9.21241e-05 0)
(0.00514192 -7.2193e-05 0)
(0.0054383 -5.18735e-05 0)
(0.00564068 -3.17334e-05 0)
(0.0057508 -1.22903e-05 0)
(0.00577264 6.0027e-06 0)
(0.00571213 2.27678e-05 0)
(0.00557679 3.77071e-05 0)
(0.00537537 5.06049e-05 0)
(0.00511752 6.13287e-05 0)
(0.00481335 6.98275e-05 0)
(0.00447309 7.61317e-05 0)
(0.00410675 8.03524e-05 0)
(0.00372366 8.26832e-05 0)
(0.00333213 8.34004e-05 0)
(0.00293905 8.28583e-05 0)
(0.00254955 8.14727e-05 0)
(0.00216674 7.96852e-05 0)
(0.00179172 7.79049e-05 0)
(0.00142383 7.64404e-05 0)
(0.00106133 7.54427e-05 0)
(0.000702111 7.48958e-05 0)
(0.000344435 7.46678e-05 0)
(-1.27344e-05 7.46145e-05 0)
(-0.000369919 7.46769e-05 0)
(-0.000727663 7.49223e-05 0)
(-0.00108705 7.5498e-05 0)
(-0.00144987 7.65304e-05 0)
(-0.00181821 7.80246e-05 0)
(-0.00219379 7.98173e-05 0)
(-0.00257714 8.15906e-05 0)
(-0.00296703 8.29307e-05 0)
(-0.00336019 8.33962e-05 0)
(-0.00375136 8.25747e-05 0)
(-0.00413356 8.01172e-05 0)
(-0.00449836 7.57532e-05 0)
(-0.00483638 6.92952e-05 0)
(-0.00513759 6.06375e-05 0)
(-0.00539175 4.9756e-05 0)
(-0.00558876 3.6707e-05 0)
(-0.00571904 2.16292e-05 0)
(-0.00577391 4.74421e-06 0)
(-0.00574594 -1.36444e-05 0)
(-0.00562935 -3.31531e-05 0)
(-0.00542029 -5.33239e-05 0)
(-0.0051172 -7.36351e-05 0)
(-0.00472102 -9.35158e-05 0)
(-0.00423534 -0.000112366 0)
(-0.00366652 -0.000129581 0)
(-0.00302355 -0.000144577 0)
(-0.00231798 -0.000156823 0)
(-0.00156351 -0.00016587 0)
(-0.000775681 -0.000171369 0)
(2.87813e-05 -0.000173131 0)
(0.000832627 -0.0001711 0)
(0.00161862 -0.000165339 0)
(0.00237009 -0.000156051 0)
(0.00307163 -0.000143592 0)
(0.00370966 -0.000128419 0)
(0.00427282 -0.000111068 0)
(0.00475229 -9.21243e-05 0)
(0.00514192 -7.21932e-05 0)
(0.0054383 -5.18737e-05 0)
(0.00564068 -3.17336e-05 0)
(0.0057508 -1.22905e-05 0)
(0.00577264 6.00255e-06 0)
(0.00571213 2.27676e-05 0)
(0.00557679 3.7707e-05 0)
(0.00537538 5.06048e-05 0)
(0.00511752 6.13286e-05 0)
(0.00481335 6.98275e-05 0)
(0.0044731 7.61316e-05 0)
(0.00410675 8.03524e-05 0)
(0.00372366 8.26833e-05 0)
(0.00333213 8.34005e-05 0)
(0.00293906 8.28583e-05 0)
(0.00254956 8.14728e-05 0)
(0.00216675 7.96852e-05 0)
(0.00179172 7.7905e-05 0)
(0.00142384 7.64404e-05 0)
(0.00106134 7.54427e-05 0)
(0.000702115 7.48958e-05 0)
(0.000344439 7.46678e-05 0)
(-1.27303e-05 7.46145e-05 0)
(-0.000369915 7.46769e-05 0)
(-0.000727659 7.49223e-05 0)
(-0.00108705 7.5498e-05 0)
(-0.00144986 7.65303e-05 0)
(-0.00181821 7.80246e-05 0)
(-0.00219379 7.98172e-05 0)
(-0.00257714 8.15906e-05 0)
(-0.00296702 8.29306e-05 0)
(-0.00336018 8.33962e-05 0)
(-0.00375136 8.25747e-05 0)
(-0.00413355 8.01172e-05 0)
(-0.00449836 7.57533e-05 0)
(-0.00483637 6.92953e-05 0)
(-0.00513758 6.06377e-05 0)
(-0.00539174 4.97561e-05 0)
(-0.00558876 3.67072e-05 0)
(-0.00571904 2.16294e-05 0)
(-0.00577391 4.74444e-06 0)
(-0.00574594 -1.36441e-05 0)
(-0.00562935 -3.31528e-05 0)
(-0.00542029 -5.33236e-05 0)
(-0.0051172 -7.36348e-05 0)
(-0.00472102 -9.35155e-05 0)
(-0.00423535 -0.000112366 0)
(-0.00366652 -0.00012958 0)
(-0.00302356 -0.000144577 0)
(-0.00231799 -0.000156823 0)
(-0.00156352 -0.00016587 0)
(-0.000775692 -0.000171369 0)
(2.87698e-05 -0.000173131 0)
(0.00114131 -0.000342027 0)
(0.00221922 -0.000330684 0)
(0.00325078 -0.000312392 0)
(0.00421523 -0.000287834 0)
(0.00509422 -0.000257893 0)
(0.00587229 -0.000223606 0)
(0.0065373 -0.000186109 0)
(0.00708066 -0.000146583 0)
(0.00749739 -0.000106197 0)
(0.00778606 -6.60689e-05 0)
(0.00794858 -2.72211e-05 0)
(0.00798992 9.44446e-06 0)
(0.00791769 4.31681e-05 0)
(0.00774173 7.33445e-05 0)
(0.00747364 9.95268e-05 0)
(0.00712626 0.000121431 0)
(0.00671323 0.000138934 0)
(0.00624842 0.000152075 0)
(0.00574546 0.000161056 0)
(0.00521718 0.000166244 0)
(0.00467508 0.000168174 0)
(0.00412879 0.000167541 0)
(0.00358556 0.000165161 0)
(0.00304996 0.000161907 0)
(0.0025238 0.00015859 0)
(0.00200656 0.000155826 0)
(0.00149614 0.000153926 0)
(0.000989899 0.000152875 0)
(0.000485647 0.000152433 0)
(-1.79503e-05 0.000152329 0)
(-0.000521568 0.000152451 0)
(-0.00102591 0.000152927 0)
(-0.00153236 0.000154032 0)
(-0.00204319 0.000155996 0)
(-0.00256101 0.000158815 0)
(-0.00308784 0.000162151 0)
(-0.00362408 0.000165371 0)
(-0.00416772 0.000167655 0)
(-0.00471399 0.000168132 0)
(-0.00525545 0.00016599 0)
(-0.00578232 0.000160547 0)
(-0.00628301 0.00015128 0)
(-0.00674458 0.000137832 0)
(-0.0071534 0.000120014 0)
(-0.00749556 9.77991e-05 0)
(-0.0077575 7.13204e-05 0)
(-0.00792643 4.08741e-05 0)
(-0.00799086 6.9185e-06 0)
(-0.0079411 -2.99298e-05 0)
(-0.0077697 -6.89005e-05 0)
(-0.00747192 -0.000109082 0)
(-0.00704608 -0.000149444 0)
(-0.00649383 -0.000188865 0)
(-0.00582043 -0.000226172 0)
(-0.00503471 -0.000260186 0)
(-0.00414908 -0.000289776 0)
(-0.0031792 -0.000313914 0)
(-0.00214362 -0.000331731 0)
(-0.00106325 -0.000342557 0)
(3.94589e-05 -0.000346026 0)
(0.00114133 -0.000342026 0)
(0.00221924 -0.000330684 0)
(0.0032508 -0.000312391 0)
(0.00421525 -0.000287833 0)
(0.00509424 -0.000257892 0)
(0.00587231 -0.000223605 0)
(0.00653732 -0.000186108 0)
(0.00708067 -0.000146582 0)
(0.0074974 -0.000106196 0)
(0.00778606 -6.60681e-05 0)
(0.00794858 -2.72203e-05 0)
(0.00798992 9.44516e-06 0)
(0.00791769 4.31688e-05 0)
(0.00774173 7.33451e-05 0)
(0.00747363 9.95273e-05 0)
(0.00712626 0.000121431 0)
(0.00671322 0.000138934 0)
(0.00624841 0.000152075 0)
(0.00574545 0.000161056 0)
(0.00521717 0.000166244 0)
(0.00467507 0.000168174 0)
(0.00412878 0.000167541 0)
(0.00358555 0.000165161 0)
(0.00304995 0.000161907 0)
(0.0025238 0.00015859 0)
(0.00200656 0.000155826 0)
(0.00149613 0.000153926 0)
(0.000989893 0.000152875 0)
(0.000485641 0.000152433 0)
(-1.79558e-05 0.000152329 0)
(-0.000521573 0.000152451 0)
(-0.00102591 0.000152927 0)
(-0.00153237 0.000154032 0)
(-0.00204319 0.000155996 0)
(-0.00256101 0.000158815 0)
(-0.00308785 0.000162151 0)
(-0.00362409 0.000165371 0)
(-0.00416772 0.000167655 0)
(-0.00471399 0.000168132 0)
(-0.00525545 0.00016599 0)
(-0.00578233 0.000160547 0)
(-0.00628301 0.00015128 0)
(-0.00674459 0.000137832 0)
(-0.0071534 0.000120015 0)
(-0.00749557 9.77992e-05 0)
(-0.00775751 7.13205e-05 0)
(-0.00792643 4.08742e-05 0)
(-0.00799086 6.91866e-06 0)
(-0.0079411 -2.99296e-05 0)
(-0.00776971 -6.89003e-05 0)
(-0.00747193 -0.000109082 0)
(-0.00704608 -0.000149444 0)
(-0.00649384 -0.000188865 0)
(-0.00582044 -0.000226172 0)
(-0.00503472 -0.000260186 0)
(-0.00414909 -0.000289776 0)
(-0.00317921 -0.000313914 0)
(-0.00214363 -0.000331731 0)
(-0.00106326 -0.000342557 0)
(3.94493e-05 -0.000346026 0)
(0.00114133 -0.000342026 0)
(0.00221923 -0.000330684 0)
(0.00325079 -0.000312392 0)
(0.00421524 -0.000287834 0)
(0.00509423 -0.000257892 0)
(0.0058723 -0.000223605 0)
(0.00653731 -0.000186109 0)
(0.00708067 -0.000146582 0)
(0.0074974 -0.000106197 0)
(0.00778606 -6.60684e-05 0)
(0.00794859 -2.72207e-05 0)
(0.00798992 9.44486e-06 0)
(0.00791769 4.31685e-05 0)
(0.00774173 7.33448e-05 0)
(0.00747364 9.95271e-05 0)
(0.00712626 0.000121431 0)
(0.00671323 0.000138934 0)
(0.00624842 0.000152075 0)
(0.00574546 0.000161056 0)
(0.00521717 0.000166244 0)
(0.00467508 0.000168174 0)
(0.00412878 0.000167541 0)
(0.00358556 0.000165161 0)
(0.00304995 0.000161907 0)
(0.0025238 0.00015859 0)
(0.00200656 0.000155826 0)
(0.00149614 0.000153926 0)
(0.000989899 0.000152875 0)
(0.000485647 0.000152433 0)
(-1.795e-05 0.000152328 0)
(-0.000521567 0.000152451 0)
(-0.00102591 0.000152927 0)
(-0.00153236 0.000154031 0)
(-0.00204319 0.000155996 0)
(-0.00256101 0.000158814 0)
(-0.00308784 0.000162151 0)
(-0.00362408 0.000165371 0)
(-0.00416772 0.000167655 0)
(-0.00471398 0.000168132 0)
(-0.00525544 0.00016599 0)
(-0.00578232 0.000160547 0)
(-0.00628301 0.00015128 0)
(-0.00674458 0.000137833 0)
(-0.00715339 0.000120015 0)
(-0.00749556 9.77995e-05 0)
(-0.0077575 7.13209e-05 0)
(-0.00792643 4.08747e-05 0)
(-0.00799086 6.91913e-06 0)
(-0.0079411 -2.99291e-05 0)
(-0.00776971 -6.88998e-05 0)
(-0.00747194 -0.000109082 0)
(-0.00704609 -0.000149444 0)
(-0.00649385 -0.000188865 0)
(-0.00582044 -0.000226171 0)
(-0.00503473 -0.000260185 0)
(-0.0041491 -0.000289775 0)
(-0.00317922 -0.000313913 0)
(-0.00214364 -0.00033173 0)
(-0.00106327 -0.000342557 0)
(3.94336e-05 -0.000346026 0)
(0.00143581 -0.0005716 0)
(0.00279251 -0.000552921 0)
(0.00409215 -0.000522787 0)
(0.00530912 -0.000482298 0)
(0.00642063 -0.000432882 0)
(0.0074074 -0.000376217 0)
(0.00825412 -0.00031415 0)
(0.00894976 -0.000248602 0)
(0.00948767 -0.000181489 0)
(0.00986554 -0.000114643 0)
(0.0100852 -4.97572e-05 0)
(0.0101522 1.16691e-05 0)
(0.0100754 6.83607e-05 0)
(0.00986671 0.00011929 0)
(0.00954006 0.000163686 0)
(0.00911117 0.000201044 0)
(0.00859685 0.000231124 0)
(0.00801434 0.000253956 0)
(0.00738067 0.000269843 0)
(0.00671203 0.000279368 0)
(0.00602302 0.000283398 0)
(0.00532599 0.000283066 0)
(0.00463038 0.000279719 0)
(0.00394233 0.000274795 0)
(0.00326454 0.000269643 0)
(0.00259678 0.000265291 0)
(0.00193682 0.000262276 0)
(0.00128169 0.000260599 0)
(0.000628846 0.000259889 0)
(-2.32443e-05 0.000259721 0)
(-0.000675358 0.000259918 0)
(-0.0013283 0.000260681 0)
(-0.00198368 0.000262445 0)
(-0.0026441 0.000265561 0)
(-0.00331252 0.000269994 0)
(-0.00399107 0.00027517 0)
(-0.0046798 0.000280028 0)
(-0.00537575 0.000283208 0)
(-0.00607257 0.000283272 0)
(-0.00676056 0.000278884 0)
(-0.00742722 0.000268931 0)
(-0.00805779 0.000252564 0)
(-0.00863602 0.000229221 0)
(-0.00914482 0.00019862 0)
(-0.00956696 0.000160749 0)
(-0.00988571 0.000115867 0)
(-0.0100854 6.44974e-05 0)
(-0.0101523 7.4308e-06 0)
(-0.0100747 -5.42876e-05 0)
(-0.00984389 -0.000119366 0)
(-0.00945462 -0.000186288 0)
(-0.00890533 -0.000253353 0)
(-0.00819864 -0.000318716 0)
(-0.00734151 -0.000380461 0)
(-0.00634529 -0.000436668 0)
(-0.00522557 -0.000485501 0)
(-0.00400192 -0.000525295 0)
(-0.00269732 -0.000554644 0)
(-0.00133758 -0.000572474 0)
(4.96373e-05 -0.000578186 0)
(0.00143584 -0.000571599 0)
(0.00279254 -0.00055292 0)
(0.00409218 -0.000522786 0)
(0.00530914 -0.000482297 0)
(0.00642065 -0.000432881 0)
(0.00740742 -0.000376216 0)
(0.00825414 -0.000314149 0)
(0.00894977 -0.000248601 0)
(0.00948768 -0.000181487 0)
(0.00986554 -0.000114642 0)
(0.0100852 -4.97559e-05 0)
(0.0101522 1.16703e-05 0)
(0.0100754 6.83618e-05 0)
(0.00986671 0.000119291 0)
(0.00954005 0.000163687 0)
(0.00911117 0.000201044 0)
(0.00859684 0.000231124 0)
(0.00801433 0.000253956 0)
(0.00738066 0.000269843 0)
(0.00671202 0.000279368 0)
(0.00602301 0.000283398 0)
(0.00532598 0.000283066 0)
(0.00463037 0.000279719 0)
(0.00394232 0.000274795 0)
(0.00326453 0.000269643 0)
(0.00259677 0.000265291 0)
(0.00193681 0.000262276 0)
(0.00128168 0.000260599 0)
(0.000628839 0.000259889 0)
(-2.32513e-05 0.00025972 0)
(-0.000675364 0.000259918 0)
(-0.00132831 0.000260681 0)
(-0.00198369 0.000262444 0)
(-0.00264411 0.000265561 0)
(-0.00331252 0.000269994 0)
(-0.00399107 0.00027517 0)
(-0.0046798 0.000280028 0)
(-0.00537576 0.000283208 0)
(-0.00607257 0.000283272 0)
(-0.00676057 0.000278885 0)
(-0.00742722 0.000268931 0)
(-0.0080578 0.000252564 0)
(-0.00863602 0.000229222 0)
(-0.00914482 0.00019862 0)
(-0.00956697 0.000160749 0)
(-0.00988572 0.000115867 0)
(-0.0100855 6.44977e-05 0)
(-0.0101523 7.43106e-06 0)
(-0.0100747 -5.42873e-05 0)
(-0.0098439 -0.000119365 0)
(-0.00945463 -0.000186288 0)
(-0.00890534 -0.000253352 0)
(-0.00819866 -0.000318716 0)
(-0.00734153 -0.000380461 0)
(-0.0063453 -0.000436668 0)
(-0.00522558 -0.000485501 0)
(-0.00400193 -0.000525295 0)
(-0.00269733 -0.000554644 0)
(-0.0013376 -0.000572474 0)
(4.96252e-05 -0.000578186 0)
(0.00143583 -0.0005716 0)
(0.00279253 -0.000552921 0)
(0.00409217 -0.000522786 0)
(0.00530913 -0.000482298 0)
(0.00642065 -0.000432881 0)
(0.00740742 -0.000376217 0)
(0.00825414 -0.00031415 0)
(0.00894977 -0.000248601 0)
(0.00948768 -0.000181488 0)
(0.00986554 -0.000114642 0)
(0.0100852 -4.97564e-05 0)
(0.0101522 1.16698e-05 0)
(0.0100754 6.83613e-05 0)
(0.00986672 0.000119291 0)
(0.00954006 0.000163687 0)
(0.00911117 0.000201044 0)
(0.00859685 0.000231124 0)
(0.00801433 0.000253956 0)
(0.00738067 0.000269843 0)
(0.00671203 0.000279368 0)
(0.00602302 0.000283398 0)
(0.00532599 0.000283066 0)
(0.00463038 0.000279719 0)
(0.00394232 0.000274795 0)
(0.00326453 0.000269643 0)
(0.00259678 0.000265291 0)
(0.00193682 0.000262276 0)
(0.00128169 0.000260599 0)
(0.000628846 0.000259889 0)
(-2.32438e-05 0.00025972 0)
(-0.000675357 0.000259918 0)
(-0.0013283 0.000260681 0)
(-0.00198368 0.000262444 0)
(-0.0026441 0.000265561 0)
(-0.00331252 0.000269994 0)
(-0.00399106 0.00027517 0)
(-0.00467979 0.000280028 0)
(-0.00537575 0.000283208 0)
(-0.00607256 0.000283272 0)
(-0.00676056 0.000278885 0)
(-0.00742722 0.000268931 0)
(-0.00805779 0.000252564 0)
(-0.00863602 0.000229222 0)
(-0.00914482 0.000198621 0)
(-0.00956696 0.00016075 0)
(-0.00988571 0.000115868 0)
(-0.0100855 6.44984e-05 0)
(-0.0101523 7.43186e-06 0)
(-0.0100747 -5.42864e-05 0)
(-0.0098439 -0.000119365 0)
(-0.00945463 -0.000186287 0)
(-0.00890535 -0.000253351 0)
(-0.00819867 -0.000318715 0)
(-0.00734154 -0.00038046 0)
(-0.00634531 -0.000436667 0)
(-0.00522559 -0.0004855 0)
(-0.00400195 -0.000525294 0)
(-0.00269735 -0.000554644 0)
(-0.00133762 -0.000572474 0)
(4.96053e-05 -0.000578186 0)
(0.00171546 -0.000859518 0)
(0.00333722 -0.000831846 0)
(0.00489235 -0.000787186 0)
(0.00635082 -0.000727134 0)
(0.00768586 -0.000653763 0)
(0.0088746 -0.000569517 0)
(0.00989873 -0.000477092 0)
(0.0107448 -0.000379303 0)
(0.0114044 -0.000278966 0)
(0.0118742 -0.000178791 0)
(0.0121555 -8.12903e-05 0)
(0.0122543 1.12911e-05 0)
(0.0121804 9.70295e-05 0)
(0.011947 0.000174357 0)
(0.0115702 0.00024208 0)
(0.0110682 0.000299391 0)
(0.0104606 0.00034588 0)
(0.00976763 0.000381539 0)
(0.0090096 0.000406769 0)
(0.00820585 0.000422399 0)
(0.00737399 0.000429687 0)
(0.00652906 0.000430298 0)
(0.00568275 0.000426226 0)
(0.00484285 0.00041961 0)
(0.00401316 0.000412463 0)
(0.00319394 0.000406337 0)
(0.00238302 0.000402059 0)
(0.00157726 0.000399669 0)
(0.000773936 0.000398656 0)
(-2.86087e-05 0.000398416 0)
(-0.000831177 0.000398697 0)
(-0.00163461 0.000399786 0)
(-0.00244063 0.000402298 0)
(-0.00325205 0.000406719 0)
(-0.00407197 0.000412955 0)
(-0.00490243 0.000420124 0)
(-0.00574296 0.000426628 0)
(-0.00658949 0.000430437 0)
(-0.00743392 0.000429412 0)
(-0.00826432 0.00042158 0)
(-0.00906542 0.000405302 0)
(-0.00981946 0.00037935 0)
(-0.010507 0.000342927 0)
(-0.0111078 0.000295661 0)
(-0.0116015 0.000237588 0)
(-0.0119687 0.000169149 0)
(-0.0121912 9.11764e-05 0)
(-0.0122532 4.89318e-06 0)
(-0.0121416 -8.81071e-05 0)
(-0.011847 -0.000185877 0)
(-0.0113637 -0.000286149 0)
(-0.0106906 -0.000386396 0)
(-0.00983147 -0.000483897 0)
(-0.00879509 -0.000575831 0)
(-0.00759525 -0.000659388 0)
(-0.0062506 -0.000731887 0)
(-0.0047843 -0.000790904 0)
(-0.00322339 -0.000834398 0)
(-0.00159809 -0.000860813 0)
(5.93011e-05 -0.000869275 0)
(0.0017155 -0.000859517 0)
(0.00333726 -0.000831845 0)
(0.00489238 -0.000787185 0)
(0.00635085 -0.000727133 0)
(0.00768589 -0.000653761 0)
(0.00887463 -0.000569515 0)
(0.00989875 -0.00047709 0)
(0.0107448 -0.000379301 0)
(0.0114044 -0.000278964 0)
(0.0118742 -0.000178789 0)
(0.0121556 -8.12883e-05 0)
(0.0122543 1.12928e-05 0)
(0.0121804 9.70311e-05 0)
(0.011947 0.000174359 0)
(0.0115702 0.000242081 0)
(0.0110682 0.000299392 0)
(0.0104606 0.000345881 0)
(0.00976761 0.000381539 0)
(0.00900959 0.000406769 0)
(0.00820584 0.000422399 0)
(0.00737398 0.000429687 0)
(0.00652905 0.000430298 0)
(0.00568273 0.000426226 0)
(0.00484284 0.00041961 0)
(0.00401315 0.000412463 0)
(0.00319393 0.000406337 0)
(0.00238301 0.000402058 0)
(0.00157725 0.000399669 0)
(0.000773927 0.000398656 0)
(-2.86174e-05 0.000398416 0)
(-0.000831186 0.000398697 0)
(-0.00163462 0.000399786 0)
(-0.00244064 0.000402298 0)
(-0.00325206 0.000406719 0)
(-0.00407198 0.000412955 0)
(-0.00490244 0.000420124 0)
(-0.00574297 0.000426628 0)
(-0.00658949 0.000430437 0)
(-0.00743393 0.000429412 0)
(-0.00826432 0.00042158 0)
(-0.00906543 0.000405302 0)
(-0.00981947 0.00037935 0)
(-0.010507 0.000342928 0)
(-0.0111078 0.000295661 0)
(-0.0116015 0.000237588 0)
(-0.0119687 0.000169149 0)
(-0.0121912 9.11768e-05 0)
(-0.0122532 4.89357e-06 0)
(-0.0121417 -8.81067e-05 0)
(-0.011847 -0.000185876 0)
(-0.0113637 -0.000286149 0)
(-0.0106906 -0.000386396 0)
(-0.00983148 -0.000483897 0)
(-0.00879511 -0.000575831 0)
(-0.00759526 -0.000659388 0)
(-0.00625061 -0.000731887 0)
(-0.00478431 -0.000790904 0)
(-0.0032234 -0.000834399 0)
(-0.00159811 -0.000860813 0)
(5.92866e-05 -0.000869275 0)
(0.00171549 -0.000859518 0)
(0.00333724 -0.000831845 0)
(0.00489237 -0.000787186 0)
(0.00635084 -0.000727133 0)
(0.00768588 -0.000653762 0)
(0.00887462 -0.000569516 0)
(0.00989875 -0.000477091 0)
(0.0107448 -0.000379302 0)
(0.0114044 -0.000278965 0)
(0.0118742 -0.00017879 0)
(0.0121556 -8.12892e-05 0)
(0.0122544 1.12921e-05 0)
(0.0121804 9.70305e-05 0)
(0.011947 0.000174358 0)
(0.0115702 0.00024208 0)
(0.0110682 0.000299392 0)
(0.0104606 0.000345881 0)
(0.00976762 0.000381539 0)
(0.0090096 0.000406769 0)
(0.00820585 0.000422399 0)
(0.00737399 0.000429687 0)
(0.00652906 0.000430298 0)
(0.00568274 0.000426226 0)
(0.00484285 0.00041961 0)
(0.00401316 0.000412463 0)
(0.00319394 0.000406337 0)